 Molden2AIM, Version 3.1.0 (02/25/2015)           Time: Wed Oct 16 15:01:38 2024
GAUSSIAN             68 MOL ORBITALS     68 PRIMITIVES        2 NUCLEI
  Be   1    (CENTRE  1)   0.00000000  0.00000000  0.00000000  CHARGE =  4.0
  Be   2    (CENTRE  2)   4.63600000  0.00000000  0.00000000  CHARGE =  4.0
CENTRE ASSIGNMENTS    1  1  1  1  1  1  1  1  1  1  1  1  1  1  1  1  1  1  1  1
CENTRE ASSIGNMENTS    1  1  1  1  1  1  1  1  1  1  1  1  1  1  2  2  2  2  2  2
CENTRE ASSIGNMENTS    2  2  2  2  2  2  2  2  2  2  2  2  2  2  2  2  2  2  2  2
CENTRE ASSIGNMENTS    2  2  2  2  2  2  2  2
TYPE ASSIGNMENTS      1  1  1  1  1  1  1  1  1  1  2  3  4  2  3  4  2  3  4  2
TYPE ASSIGNMENTS      3  4  5  6  7  8  9 10  5  6  7  8  9 10  1  1  1  1  1  1
TYPE ASSIGNMENTS      1  1  1  1  2  3  4  2  3  4  2  3  4  2  3  4  5  6  7  8
TYPE ASSIGNMENTS      9 10  5  6  7  8  9 10
EXPONENTS  0.1000000D-03 0.3000000D-03 0.9000000D-03 0.2700000D-02 0.8100000D-02
EXPONENTS  0.2430000D-01 0.7290000D-01 0.2187000D+00 0.6561000D+00 0.1968300D+01
EXPONENTS  0.1000000D-03 0.1000000D-03 0.1000000D-03 0.3000000D-03 0.3000000D-03
EXPONENTS  0.3000000D-03 0.9000000D-03 0.9000000D-03 0.9000000D-03 0.2700000D-02
EXPONENTS  0.2700000D-02 0.2700000D-02 0.1000000D-03 0.1000000D-03 0.1000000D-03
EXPONENTS  0.1000000D-03 0.1000000D-03 0.1000000D-03 0.3000000D-03 0.3000000D-03
EXPONENTS  0.3000000D-03 0.3000000D-03 0.3000000D-03 0.3000000D-03 0.1000000D-03
EXPONENTS  0.3000000D-03 0.9000000D-03 0.2700000D-02 0.8100000D-02 0.2430000D-01
EXPONENTS  0.7290000D-01 0.2187000D+00 0.6561000D+00 0.1968300D+01 0.1000000D-03
EXPONENTS  0.1000000D-03 0.1000000D-03 0.3000000D-03 0.3000000D-03 0.3000000D-03
EXPONENTS  0.9000000D-03 0.9000000D-03 0.9000000D-03 0.2700000D-02 0.2700000D-02
EXPONENTS  0.2700000D-02 0.1000000D-03 0.1000000D-03 0.1000000D-03 0.1000000D-03
EXPONENTS  0.1000000D-03 0.1000000D-03 0.3000000D-03 0.3000000D-03 0.3000000D-03
EXPONENTS  0.3000000D-03 0.3000000D-03 0.3000000D-03
MO    1     MO 0.0        OCC NO =    1.0000000  ORB. ENERGY =   -0.021327
  0.45103566D-05  0.12893189D-04 -0.47094830D-04 -0.87571255D-04 -0.31187055D-02
 -0.11390385D-01 -0.25612884D-01  0.43058290D-01  0.71369310D-02 -0.32107617D-03
  0.47912338D-08 -0.00000000D+00  0.00000000D+00  0.47133713D-07 -0.00000000D+00
 -0.00000000D+00  0.57851704D-05  0.00000000D+00 -0.00000000D+00 -0.26563922D-04
  0.00000000D+00  0.00000000D+00 -0.19052708D-09 -0.12994396D-09 -0.12994396D-09
  0.00000000D+00  0.00000000D+00  0.00000000D+00 -0.28234530D-08 -0.41139277D-08
 -0.41139277D-08 -0.00000000D+00  0.00000000D+00 -0.00000000D+00  0.45103566D-05
  0.12893189D-04 -0.47094830D-04 -0.87571255D-04 -0.31187055D-02 -0.11390385D-01
 -0.25612884D-01  0.43058290D-01  0.71369310D-02 -0.32107617D-03 -0.47912338D-08
  0.00000000D+00 -0.00000000D+00 -0.47133713D-07  0.00000000D+00 -0.00000000D+00
 -0.57851704D-05 -0.00000000D+00  0.00000000D+00  0.26563922D-04 -0.00000000D+00
 -0.00000000D+00 -0.19052708D-09 -0.12994396D-09 -0.12994396D-09 -0.00000000D+00
 -0.00000000D+00 -0.00000000D+00 -0.28234530D-08 -0.41139277D-08 -0.41139277D-08
  0.00000000D+00 -0.00000000D+00  0.00000000D+00
MO    2     MO 0.0        OCC NO =    0.0000000  ORB. ENERGY =    0.002127
  0.93169392D-04  0.51189685D-03 -0.40484673D-02  0.42739495D-02 -0.18398091D-02
  0.41525461D-02  0.10351075D-02 -0.37130936D-02 -0.16686003D-02  0.35846597D-03
  0.96343383D-07 -0.00000000D+00  0.00000000D+00  0.17706774D-05 -0.00000000D+00
  0.00000000D+00  0.24306203D-04  0.00000000D+00  0.00000000D+00 -0.94648687D-04
 -0.00000000D+00 -0.00000000D+00 -0.31114821D-08 -0.28213733D-08 -0.28213733D-08
 -0.00000000D+00  0.00000000D+00  0.00000000D+00 -0.95395010D-07 -0.10391756D-06
 -0.10391756D-06  0.00000000D+00 -0.00000000D+00 -0.00000000D+00  0.93169392D-04
  0.51189685D-03 -0.40484673D-02  0.42739495D-02 -0.18398091D-02  0.41525461D-02
  0.10351075D-02 -0.37130936D-02 -0.16686003D-02  0.35846597D-03 -0.96343383D-07
  0.00000000D+00 -0.00000000D+00 -0.17706774D-05  0.00000000D+00 -0.00000000D+00
 -0.24306203D-04 -0.00000000D+00 -0.00000000D+00  0.94648687D-04  0.00000000D+00
  0.00000000D+00 -0.31114821D-08 -0.28213733D-08 -0.28213733D-08  0.00000000D+00
 -0.00000000D+00 -0.00000000D+00 -0.95395010D-07 -0.10391756D-06 -0.10391756D-06
 -0.00000000D+00  0.00000000D+00 -0.00000000D+00
MO    3     MO 0.0        OCC NO =    0.0000000  ORB. ENERGY =    0.002926
 -0.32146652D-05 -0.14034856D-04 -0.20216464D-02 -0.68818599D-01  0.75831507D-02
  0.60095773D-03  0.38931712D-02 -0.43365322D-02  0.87343616D-04 -0.23419256D-03
  0.25015916D-05 -0.00000000D+00  0.00000000D+00  0.85035959D-05  0.00000000D+00
  0.00000000D+00 -0.17893820D-03 -0.00000000D+00 -0.00000000D+00 -0.79049619D-03
  0.00000000D+00  0.00000000D+00  0.23423021D-06  0.23077057D-06  0.23077057D-06
 -0.00000000D+00  0.00000000D+00  0.00000000D+00  0.30647509D-05  0.30900411D-05
  0.30900411D-05  0.00000000D+00  0.00000000D+00 -0.00000000D+00  0.32146652D-05
  0.14034856D-04  0.20216464D-02  0.68818599D-01 -0.75831507D-02 -0.60095773D-03
 -0.38931712D-02  0.43365322D-02 -0.87343616D-04  0.23419256D-03  0.25015916D-05
  0.00000000D+00 -0.00000000D+00  0.85035959D-05 -0.00000000D+00 -0.00000000D+00
 -0.17893820D-03  0.00000000D+00  0.00000000D+00 -0.79049619D-03 -0.00000000D+00
 -0.00000000D+00 -0.23423021D-06 -0.23077057D-06 -0.23077057D-06 -0.00000000D+00
  0.00000000D+00 -0.00000000D+00 -0.30647509D-05 -0.30900411D-05 -0.30900411D-05
  0.00000000D+00  0.00000000D+00  0.00000000D+00
MO    4     MO 0.0        OCC NO =    0.0000000  ORB. ENERGY =    0.003415
  0.00000000D+00  0.00000000D+00  0.00000000D+00  0.00000000D+00 -0.00000000D+00
  0.00000000D+00 -0.00000000D+00  0.00000000D+00 -0.00000000D+00  0.00000000D+00
  0.00000000D+00 -0.64203360D-08 -0.37417322D-06  0.00000000D+00  0.11370767D-06
  0.66268456D-05  0.00000000D+00 -0.21786713D-05 -0.12697252D-03  0.00000000D+00
 -0.10997748D-06 -0.64097063D-05  0.00000000D+00  0.00000000D+00  0.00000000D+00
 -0.17906155D-08 -0.10435675D-06  0.00000000D+00  0.00000000D+00  0.00000000D+00
  0.00000000D+00  0.74367565D-08  0.43341233D-06 -0.00000000D+00 -0.00000000D+00
 -0.00000000D+00 -0.00000000D+00 -0.00000000D+00  0.00000000D+00 -0.00000000D+00
  0.00000000D+00 -0.00000000D+00  0.00000000D+00 -0.00000000D+00 -0.00000000D+00
 -0.64203360D-08 -0.37417322D-06  0.00000000D+00  0.11370767D-06  0.66268456D-05
  0.00000000D+00 -0.21786713D-05 -0.12697252D-03  0.00000000D+00 -0.10997748D-06
 -0.64097063D-05 -0.00000000D+00 -0.00000000D+00 -0.00000000D+00  0.17906155D-08
  0.10435675D-06 -0.00000000D+00 -0.00000000D+00 -0.00000000D+00 -0.00000000D+00
 -0.74367565D-08 -0.43341233D-06  0.00000000D+00
MO    5     MO 0.0        OCC NO =    0.0000000  ORB. ENERGY =    0.003415
  0.00000000D+00  0.00000000D+00 -0.00000000D+00 -0.00000000D+00  0.00000000D+00
 -0.00000000D+00  0.00000000D+00  0.00000000D+00  0.00000000D+00 -0.00000000D+00
  0.00000000D+00  0.37417322D-06 -0.64203360D-08  0.00000000D+00 -0.66268456D-05
  0.11370767D-06  0.00000000D+00  0.12697252D-03 -0.21786713D-05 -0.00000000D+00
  0.64097063D-05 -0.10997748D-06  0.00000000D+00 -0.00000000D+00  0.00000000D+00
  0.10435675D-06 -0.17906155D-08 -0.00000000D+00 -0.00000000D+00 -0.00000000D+00
 -0.00000000D+00 -0.43341233D-06  0.74367565D-08  0.00000000D+00 -0.00000000D+00
 -0.00000000D+00  0.00000000D+00  0.00000000D+00 -0.00000000D+00  0.00000000D+00
 -0.00000000D+00 -0.00000000D+00 -0.00000000D+00  0.00000000D+00 -0.00000000D+00
  0.37417322D-06 -0.64203360D-08 -0.00000000D+00 -0.66268456D-05  0.11370767D-06
 -0.00000000D+00  0.12697252D-03 -0.21786713D-05 -0.00000000D+00  0.64097063D-05
 -0.10997748D-06 -0.00000000D+00  0.00000000D+00 -0.00000000D+00 -0.10435675D-06
  0.17906155D-08  0.00000000D+00  0.00000000D+00  0.00000000D+00  0.00000000D+00
  0.43341233D-06 -0.74367565D-08 -0.00000000D+00
MO    6     MO 0.0        OCC NO =    0.0000000  ORB. ENERGY =    0.006599
  0.00000000D+00  0.00000000D+00  0.00000000D+00  0.00000000D+00 -0.00000000D+00
  0.00000000D+00  0.00000000D+00 -0.00000000D+00 -0.00000000D+00  0.00000000D+00
  0.00000000D+00  0.65328009D-08  0.41626276D-08  0.00000000D+00 -0.68185770D-07
 -0.43448042D-07  0.00000000D+00  0.12404663D-02  0.79042728D-03  0.00000000D+00
  0.80378154D-03  0.51217101D-03 -0.00000000D+00 -0.00000000D+00 -0.00000000D+00
 -0.86956425D-08 -0.55408774D-08  0.00000000D+00 -0.00000000D+00 -0.00000000D+00
 -0.00000000D+00  0.17593896D-06  0.11210860D-06  0.00000000D+00  0.00000000D+00
  0.00000000D+00 -0.00000000D+00 -0.00000000D+00  0.00000000D+00 -0.00000000D+00
 -0.00000000D+00  0.00000000D+00  0.00000000D+00 -0.00000000D+00 -0.00000000D+00
 -0.65328009D-08 -0.41626276D-08 -0.00000000D+00  0.68185770D-07  0.43448042D-07
 -0.00000000D+00 -0.12404663D-02 -0.79042728D-03  0.00000000D+00 -0.80378154D-03
 -0.51217101D-03  0.00000000D+00  0.00000000D+00  0.00000000D+00 -0.86956425D-08
 -0.55408774D-08 -0.00000000D+00  0.00000000D+00 -0.00000000D+00 -0.00000000D+00
  0.17593896D-06  0.11210860D-06 -0.00000000D+00
MO    7     MO 0.0        OCC NO =    0.0000000  ORB. ENERGY =    0.006599
  0.00000000D+00  0.00000000D+00 -0.00000000D+00 -0.00000000D+00 -0.00000000D+00
  0.00000000D+00  0.00000000D+00 -0.00000000D+00  0.00000000D+00 -0.00000000D+00
  0.00000000D+00  0.41626276D-08 -0.65328009D-08  0.00000000D+00 -0.43448042D-07
  0.68185770D-07  0.00000000D+00  0.79042728D-03 -0.12404663D-02  0.00000000D+00
  0.51217101D-03 -0.80378154D-03 -0.00000000D+00 -0.00000000D+00 -0.00000000D+00
 -0.55408774D-08  0.86956425D-08  0.00000000D+00 -0.00000000D+00 -0.00000000D+00
 -0.00000000D+00  0.11210860D-06 -0.17593896D-06 -0.00000000D+00  0.00000000D+00
  0.00000000D+00 -0.00000000D+00  0.00000000D+00 -0.00000000D+00  0.00000000D+00
  0.00000000D+00 -0.00000000D+00  0.00000000D+00 -0.00000000D+00 -0.00000000D+00
 -0.41626276D-08  0.65328009D-08 -0.00000000D+00  0.43448042D-07 -0.68185770D-07
 -0.00000000D+00 -0.79042728D-03  0.12404663D-02 -0.00000000D+00 -0.51217101D-03
  0.80378154D-03  0.00000000D+00  0.00000000D+00  0.00000000D+00 -0.55408774D-08
  0.86956425D-08 -0.00000000D+00  0.00000000D+00  0.00000000D+00  0.00000000D+00
  0.11210860D-06 -0.17593896D-06  0.00000000D+00
MO    8     MO 0.0        OCC NO =    0.0000000  ORB. ENERGY =    0.006639
 -0.19289800D-03 -0.91703984D-03  0.19497065D-02  0.38998976D-02  0.22900420D-03
 -0.13727402D-03 -0.15571413D-03  0.24876460D-03  0.77414781D-06  0.13264674D-04
 -0.21269241D-06  0.00000000D+00 -0.00000000D+00 -0.30726470D-05  0.00000000D+00
 -0.00000000D+00 -0.12398234D-02  0.00000000D+00 -0.00000000D+00 -0.88621173D-03
  0.00000000D+00 -0.00000000D+00  0.11945283D-07  0.34377105D-08  0.34377105D-08
 -0.00000000D+00  0.00000000D+00 -0.00000000D+00  0.70792293D-07  0.24951277D-06
  0.24951277D-06  0.00000000D+00 -0.00000000D+00 -0.00000000D+00 -0.19289800D-03
 -0.91703984D-03  0.19497065D-02  0.38998975D-02  0.22900420D-03 -0.13727402D-03
 -0.15571413D-03  0.24876460D-03  0.77414781D-06  0.13264674D-04  0.21269241D-06
 -0.00000000D+00  0.00000000D+00  0.30726470D-05 -0.00000000D+00  0.00000000D+00
  0.12398234D-02 -0.00000000D+00  0.00000000D+00  0.88621173D-03 -0.00000000D+00
  0.00000000D+00  0.11945283D-07  0.34377105D-08  0.34377105D-08 -0.00000000D+00
  0.00000000D+00  0.00000000D+00  0.70792293D-07  0.24951277D-06  0.24951277D-06
  0.00000000D+00 -0.00000000D+00  0.00000000D+00
MO    9     MO 0.0        OCC NO =    0.0000000  ORB. ENERGY =    0.007362
 -0.27962999D-05 -0.13246251D-04  0.27301399D-03 -0.28926445D-02 -0.17118954D-02
 -0.10906940D-01 -0.65538750D-02  0.96065459D-02  0.14075306D-02  0.56493300D-05
  0.21760942D-05 -0.00000000D+00  0.00000000D+00  0.82449838D-05  0.00000000D+00
  0.00000000D+00 -0.17247293D-03  0.00000000D+00  0.00000000D+00  0.59150679D-03
  0.00000000D+00  0.00000000D+00  0.20356868D-06  0.20013871D-06  0.20013871D-06
 -0.00000000D+00  0.00000000D+00  0.00000000D+00  0.27300595D-05  0.27552902D-05
  0.27552902D-05  0.00000000D+00  0.00000000D+00 -0.00000000D+00  0.27962999D-05
  0.13246251D-04 -0.27301399D-03  0.28926445D-02  0.17118954D-02  0.10906940D-01
  0.65538750D-02 -0.96065459D-02 -0.14075306D-02 -0.56493300D-05  0.21760942D-05
  0.00000000D+00 -0.00000000D+00  0.82449838D-05 -0.00000000D+00 -0.00000000D+00
 -0.17247293D-03 -0.00000000D+00  0.00000000D+00  0.59150679D-03 -0.00000000D+00
 -0.00000000D+00 -0.20356868D-06 -0.20013871D-06 -0.20013871D-06 -0.00000000D+00
 -0.00000000D+00 -0.00000000D+00 -0.27300595D-05 -0.27552902D-05 -0.27552902D-05
  0.00000000D+00  0.00000000D+00  0.00000000D+00
MO   10     MO 0.0        OCC NO =    0.0000000  ORB. ENERGY =    0.008680
 -0.58785430D-04  0.24763990D-03 -0.33227009D-02  0.12488006D-01 -0.12707542D-01
  0.21355586D-02 -0.12040040D-01  0.14987057D-01  0.49412452D-03  0.55826513D-03
 -0.60198668D-07 -0.00000000D+00  0.00000000D+00  0.63180877D-06 -0.00000000D+00
  0.00000000D+00  0.18865768D-03 -0.00000000D+00  0.00000000D+00 -0.42287260D-03
 -0.00000000D+00  0.00000000D+00  0.11846858D-08  0.28391312D-08  0.28391312D-08
  0.00000000D+00  0.00000000D+00  0.00000000D+00  0.28210781D-07 -0.38631962D-08
 -0.38631962D-08 -0.00000000D+00 -0.00000000D+00 -0.00000000D+00 -0.58785430D-04
  0.24763990D-03 -0.33227009D-02  0.12488006D-01 -0.12707542D-01  0.21355586D-02
 -0.12040040D-01  0.14987057D-01  0.49412452D-03  0.55826513D-03  0.60198668D-07
  0.00000000D+00 -0.00000000D+00 -0.63180877D-06  0.00000000D+00 -0.00000000D+00
 -0.18865768D-03  0.00000000D+00 -0.00000000D+00  0.42287259D-03  0.00000000D+00
 -0.00000000D+00  0.11846858D-08  0.28391312D-08  0.28391312D-08 -0.00000000D+00
 -0.00000000D+00 -0.00000000D+00  0.28210781D-07 -0.38631962D-08 -0.38631962D-08
  0.00000000D+00  0.00000000D+00  0.00000000D+00
MO   11     MO 0.0        OCC NO =    0.0000000  ORB. ENERGY =    0.008747
  0.00000000D+00  0.00000000D+00 -0.00000000D+00 -0.00000000D+00  0.00000000D+00
 -0.00000000D+00  0.00000000D+00 -0.00000000D+00  0.00000000D+00 -0.00000000D+00
 -0.00000000D+00  0.34283927D-06 -0.35293175D-09 -0.00000000D+00 -0.61844811D-05
  0.63673369D-08 -0.00000000D+00  0.13762440D-03 -0.14168778D-06 -0.00000000D+00
 -0.64914694D-03  0.66831323D-06 -0.00000000D+00 -0.00000000D+00 -0.00000000D+00
  0.90512457D-07 -0.93184815D-10 -0.00000000D+00 -0.00000000D+00 -0.00000000D+00
 -0.00000000D+00 -0.36885019D-06  0.37975101D-09  0.00000000D+00 -0.00000000D+00
 -0.00000000D+00  0.00000000D+00  0.00000000D+00 -0.00000000D+00  0.00000000D+00
  0.00000000D+00 -0.00000000D+00 -0.00000000D+00  0.00000000D+00 -0.00000000D+00
  0.34283927D-06 -0.35293175D-09 -0.00000000D+00 -0.61844811D-05  0.63673369D-08
 -0.00000000D+00  0.13762440D-03 -0.14168778D-06 -0.00000000D+00 -0.64914694D-03
  0.66831323D-06  0.00000000D+00  0.00000000D+00  0.00000000D+00 -0.90512457D-07
  0.93184815D-10  0.00000000D+00  0.00000000D+00  0.00000000D+00  0.00000000D+00
  0.36885019D-06 -0.37975101D-09 -0.00000000D+00
MO   12     MO 0.0        OCC NO =    0.0000000  ORB. ENERGY =    0.008747
  0.00000000D+00  0.00000000D+00  0.00000000D+00  0.00000000D+00 -0.00000000D+00
  0.00000000D+00 -0.00000000D+00  0.00000000D+00 -0.00000000D+00  0.00000000D+00
 -0.00000000D+00 -0.35293175D-09 -0.34283927D-06  0.00000000D+00  0.63673369D-08
  0.61844811D-05  0.00000000D+00 -0.14168778D-06 -0.13762440D-03  0.00000000D+00
  0.66831323D-06  0.64914694D-03 -0.00000000D+00 -0.00000000D+00 -0.00000000D+00
 -0.93184815D-10 -0.90512457D-07 -0.00000000D+00 -0.00000000D+00 -0.00000000D+00
 -0.00000000D+00  0.37975101D-09  0.36885019D-06  0.00000000D+00 -0.00000000D+00
 -0.00000000D+00 -0.00000000D+00 -0.00000000D+00  0.00000000D+00 -0.00000000D+00
 -0.00000000D+00  0.00000000D+00  0.00000000D+00  0.00000000D+00 -0.00000000D+00
 -0.35293175D-09 -0.34283927D-06  0.00000000D+00  0.63673369D-08  0.61844811D-05
  0.00000000D+00 -0.14168778D-06 -0.13762440D-03  0.00000000D+00  0.66831323D-06
  0.64914694D-03  0.00000000D+00  0.00000000D+00  0.00000000D+00  0.93184815D-10
  0.90512457D-07  0.00000000D+00  0.00000000D+00  0.00000000D+00  0.00000000D+00
 -0.37975101D-09 -0.36885019D-06 -0.00000000D+00
MO   13     MO 0.0        OCC NO =    0.0000000  ORB. ENERGY =    0.013261
 -0.33141517D-05 -0.12733034D-04  0.14288409D+00  0.41072953D+01 -0.20188634D-01
  0.10380960D-01 -0.81976845D-03 -0.14635747D-02 -0.15340440D-02  0.42000459D-03
  0.25296273D-05  0.14254109D-12 -0.00000000D+00  0.94862261D-05 -0.11255678D-11
 -0.56278389D-12  0.40277280D-03 -0.00000000D+00 -0.00000000D+00  0.52508547D-01
  0.00000000D+00  0.00000000D+00  0.27518023D-06  0.21192118D-06  0.21192118D-06
  0.00000000D+00 -0.00000000D+00 -0.00000000D+00  0.29973545D-05  0.34854831D-05
  0.34854831D-05 -0.00000000D+00 -0.00000000D+00  0.00000000D+00  0.33141517D-05
  0.12733034D-04 -0.14288409D+00 -0.41072953D+01  0.20188634D-01 -0.10380960D-01
  0.81976845D-03  0.14635747D-02  0.15340440D-02 -0.42000459D-03  0.25296276D-05
 -0.14254109D-12  0.00000000D+00  0.94862245D-05  0.11255678D-11  0.56278389D-12
  0.40277280D-03  0.00000000D+00  0.00000000D+00  0.52508547D-01 -0.00000000D+00
 -0.00000000D+00 -0.27518023D-06 -0.21192118D-06 -0.21192118D-06  0.00000000D+00
 -0.00000000D+00  0.00000000D+00 -0.29973545D-05 -0.34854831D-05 -0.34854831D-05
 -0.00000000D+00 -0.00000000D+00 -0.00000000D+00
MO   14     MO 0.0        OCC NO =    0.0000000  ORB. ENERGY =    0.014472
  0.00000000D+00  0.00000000D+00 -0.00000000D+00 -0.00000000D+00  0.00000000D+00
 -0.00000000D+00  0.00000000D+00 -0.00000000D+00  0.00000000D+00 -0.00000000D+00
  0.00000000D+00  0.12211496D-08 -0.56340793D-08  0.00000000D+00 -0.39501801D-08
  0.18226319D-07  0.00000000D+00  0.38147085D-03 -0.17600063D-02 -0.00000000D+00
 -0.98653319D-03  0.45516050D-02  0.00000000D+00  0.00000000D+00  0.00000000D+00
 -0.21462555D-08  0.99022614D-08  0.00000000D+00  0.00000000D+00 -0.00000000D+00
 -0.00000000D+00  0.44380804D-07 -0.20476140D-06 -0.00000000D+00  0.00000000D+00
  0.00000000D+00  0.00000000D+00  0.00000000D+00  0.00000000D+00 -0.00000000D+00
  0.00000000D+00 -0.00000000D+00  0.00000000D+00 -0.00000000D+00  0.00000000D+00
 -0.12211496D-08  0.56340793D-08 -0.00000000D+00  0.39501801D-08 -0.18226319D-07
 -0.00000000D+00 -0.38147085D-03  0.17600063D-02 -0.00000000D+00  0.98653319D-03
 -0.45516050D-02 -0.00000000D+00 -0.00000000D+00 -0.00000000D+00 -0.21462555D-08
  0.99022614D-08 -0.00000000D+00 -0.00000000D+00  0.00000000D+00 -0.00000000D+00
  0.44380804D-07 -0.20476140D-06  0.00000000D+00
MO   15     MO 0.0        OCC NO =    0.0000000  ORB. ENERGY =    0.014472
 -0.00000000D+00 -0.00000000D+00 -0.00000000D+00 -0.00000000D+00  0.00000000D+00
 -0.00000000D+00 -0.00000000D+00  0.00000000D+00  0.00000000D+00 -0.00000000D+00
 -0.00000000D+00 -0.56340793D-08 -0.12211496D-08 -0.00000000D+00  0.18226319D-07
  0.39501801D-08 -0.00000000D+00 -0.17600063D-02 -0.38147085D-03 -0.00000000D+00
  0.45516050D-02  0.98653319D-03 -0.00000000D+00 -0.00000000D+00 -0.00000000D+00
  0.99022614D-08  0.21462555D-08 -0.00000000D+00 -0.00000000D+00 -0.00000000D+00
 -0.00000000D+00 -0.20476140D-06 -0.44380804D-07 -0.00000000D+00 -0.00000000D+00
 -0.00000000D+00  0.00000000D+00  0.00000000D+00 -0.00000000D+00  0.00000000D+00
  0.00000000D+00 -0.00000000D+00 -0.00000000D+00  0.00000000D+00 -0.00000000D+00
  0.56340793D-08  0.12211496D-08 -0.00000000D+00 -0.18226319D-07 -0.39501801D-08
 -0.00000000D+00  0.17600063D-02  0.38147085D-03 -0.00000000D+00 -0.45516050D-02
 -0.98653319D-03  0.00000000D+00  0.00000000D+00  0.00000000D+00  0.99022614D-08
  0.21462555D-08  0.00000000D+00  0.00000000D+00  0.00000000D+00  0.00000000D+00
 -0.20476140D-06 -0.44380804D-07  0.00000000D+00
MO   16     MO 0.0        OCC NO =    0.0000000  ORB. ENERGY =    0.014872
 -0.36078925D-03 -0.14645704D-02  0.48609891D-02 -0.36235665D-03 -0.11631382D-01
  0.49094572D-02 -0.62361284D-02  0.58692145D-02 -0.82645214D-03  0.53970643D-03
 -0.38293850D-06  0.00000000D+00 -0.00000000D+00 -0.52028858D-05  0.00000000D+00
 -0.00000000D+00 -0.14898438D-02  0.00000000D+00 -0.00000000D+00  0.38163820D-02
 -0.00000000D+00  0.00000000D+00  0.17159644D-07  0.93532804D-08  0.93532804D-08
 -0.00000000D+00 -0.00000000D+00 -0.00000000D+00  0.21503016D-06  0.38905897D-06
  0.38905897D-06  0.00000000D+00  0.00000000D+00  0.00000000D+00 -0.36078925D-03
 -0.14645704D-02  0.48609891D-02 -0.36235707D-03 -0.11631382D-01  0.49094572D-02
 -0.62361284D-02  0.58692145D-02 -0.82645214D-03  0.53970643D-03  0.38293850D-06
 -0.00000000D+00  0.00000000D+00  0.52028858D-05 -0.00000000D+00  0.00000000D+00
  0.14898438D-02 -0.00000000D+00  0.00000000D+00 -0.38163820D-02  0.00000000D+00
 -0.00000000D+00  0.17159644D-07  0.93532804D-08  0.93532804D-08  0.00000000D+00
  0.00000000D+00  0.00000000D+00  0.21503016D-06  0.38905897D-06  0.38905897D-06
 -0.00000000D+00 -0.00000000D+00 -0.00000000D+00
MO   17     MO 0.0        OCC NO =    0.0000000  ORB. ENERGY =    0.019228
 -0.30183932D-05 -0.36777921D-05  0.47895786D-01  0.13780664D+01 -0.70998962D-01
 -0.22977876D-02 -0.19584800D-01  0.21510341D-01 -0.17897362D-03  0.10883665D-02
  0.23029404D-05  0.00000000D+00 -0.00000000D+00  0.13497516D-05 -0.56278389D-12
 -0.00000000D+00  0.21545534D-03  0.00000000D+00  0.00000000D+00  0.16835154D-01
 -0.00000000D+00 -0.00000000D+00  0.25643651D-06  0.21586146D-06  0.21586146D-06
  0.00000000D+00 -0.00000000D+00 -0.00000000D+00  0.21418454D-05  0.24472426D-05
  0.24472426D-05 -0.00000000D+00 -0.00000000D+00 -0.00000000D+00  0.30183932D-05
  0.36777921D-05 -0.47895786D-01 -0.13780664D+01  0.70998962D-01  0.22977876D-02
  0.19584800D-01 -0.21510341D-01  0.17897362D-03 -0.10883665D-02  0.23029405D-05
 -0.00000000D+00  0.00000000D+00  0.13497511D-05  0.56278389D-12  0.00000000D+00
  0.21545534D-03 -0.00000000D+00 -0.00000000D+00  0.16835154D-01  0.00000000D+00
  0.00000000D+00 -0.25643651D-06 -0.21586146D-06 -0.21586146D-06  0.00000000D+00
 -0.00000000D+00  0.00000000D+00 -0.21418454D-05 -0.24472426D-05 -0.24472426D-05
 -0.00000000D+00 -0.00000000D+00  0.00000000D+00
MO   18     MO 0.0        OCC NO =    0.0000000  ORB. ENERGY =    0.025085
 -0.20999272D-02 -0.48646343D-02  0.14270016D-01 -0.12555828D-01  0.19158211D-02
  0.75335852D-02  0.22197558D-02 -0.65715070D-02 -0.26807492D-02  0.52653650D-03
 -0.21860718D-05  0.00000000D+00 -0.00000000D+00 -0.19182734D-04  0.00000000D+00
 -0.00000000D+00 -0.24770339D-03  0.00000000D+00 -0.00000000D+00  0.64649555D-03
 -0.00000000D+00  0.00000000D+00  0.70911685D-07  0.73755200D-07  0.73755200D-07
  0.00000000D+00 -0.00000000D+00 -0.00000000D+00  0.15739318D-05  0.15790323D-05
  0.15790323D-05 -0.00000000D+00  0.00000000D+00  0.00000000D+00 -0.20999272D-02
 -0.48646343D-02  0.14270016D-01 -0.12555828D-01  0.19158211D-02  0.75335852D-02
  0.22197558D-02 -0.65715070D-02 -0.26807492D-02  0.52653650D-03  0.21860718D-05
 -0.00000000D+00  0.00000000D+00  0.19182734D-04 -0.00000000D+00  0.00000000D+00
  0.24770339D-03 -0.00000000D+00  0.00000000D+00 -0.64649556D-03  0.00000000D+00
 -0.00000000D+00  0.70911685D-07  0.73755200D-07  0.73755200D-07 -0.00000000D+00
  0.00000000D+00  0.00000000D+00  0.15739318D-05  0.15790323D-05  0.15790323D-05
  0.00000000D+00 -0.00000000D+00 -0.00000000D+00
MO   19     MO 0.0        OCC NO =    0.0000000  ORB. ENERGY =    0.034295
  0.33263746D-04  0.66637539D-04 -0.20326791D-01 -0.52910327D+00 -0.91709585D-02
 -0.14931420D-01 -0.15736486D-02  0.49880036D-02  0.21970055D-02 -0.45349789D-03
 -0.25425533D-04 -0.00000000D+00  0.00000000D+00 -0.28782562D-04  0.00000000D+00
  0.00000000D+00  0.36552564D-03 -0.00000000D+00  0.00000000D+00 -0.73879375D-02
  0.00000000D+00  0.00000000D+00 -0.28173800D-05 -0.27334824D-05 -0.27334824D-05
 -0.00000000D+00  0.00000000D+00 -0.00000000D+00 -0.24881457D-04 -0.25416036D-04
 -0.25416036D-04  0.00000000D+00  0.00000000D+00  0.00000000D+00 -0.33263746D-04
 -0.66637539D-04  0.20326791D-01  0.52910327D+00  0.91709585D-02  0.14931420D-01
  0.15736486D-02 -0.49880036D-02 -0.21970055D-02  0.45349789D-03 -0.25425533D-04
  0.00000000D+00 -0.00000000D+00 -0.28782561D-04 -0.00000000D+00 -0.00000000D+00
  0.36552564D-03  0.00000000D+00  0.00000000D+00 -0.73879375D-02 -0.00000000D+00
 -0.00000000D+00  0.28173800D-05  0.27334824D-05  0.27334824D-05 -0.00000000D+00
 -0.00000000D+00  0.00000000D+00  0.24881457D-04  0.25416036D-04  0.25416036D-04
  0.00000000D+00  0.00000000D+00 -0.00000000D+00
MO   20     MO 0.0        OCC NO =    0.0000000  ORB. ENERGY =    0.037011
 -0.00000000D+00  0.00000000D+00 -0.00000000D+00 -0.00000000D+00  0.00000000D+00
  0.00000000D+00  0.00000000D+00 -0.00000000D+00  0.00000000D+00 -0.00000000D+00
 -0.00000000D+00  0.00000000D+00  0.00000000D+00  0.00000000D+00  0.00000000D+00
  0.00000000D+00 -0.00000000D+00  0.00000000D+00 -0.00000000D+00 -0.00000000D+00
 -0.00000000D+00  0.00000000D+00 -0.00000000D+00  0.15202204D-08 -0.15202204D-08
 -0.00000000D+00 -0.00000000D+00  0.86751947D-07 -0.00000000D+00 -0.21230482D-07
  0.21230482D-07  0.00000000D+00  0.00000000D+00 -0.12115256D-05 -0.00000000D+00
  0.00000000D+00  0.00000000D+00  0.00000000D+00 -0.00000000D+00 -0.00000000D+00
 -0.00000000D+00  0.00000000D+00  0.00000000D+00  0.00000000D+00 -0.00000000D+00
  0.00000000D+00  0.00000000D+00  0.00000000D+00  0.00000000D+00  0.00000000D+00
 -0.00000000D+00 -0.00000000D+00  0.00000000D+00 -0.00000000D+00  0.00000000D+00
 -0.00000000D+00  0.00000000D+00  0.15202204D-08 -0.15202204D-08  0.00000000D+00
  0.00000000D+00  0.86751947D-07  0.00000000D+00 -0.21230482D-07  0.21230482D-07
 -0.00000000D+00 -0.00000000D+00 -0.12115256D-05
MO   21     MO 0.0        OCC NO =    0.0000000  ORB. ENERGY =    0.037011
  0.00000000D+00 -0.00000000D+00 -0.00000000D+00 -0.00000000D+00 -0.00000000D+00
 -0.00000000D+00  0.00000000D+00  0.00000000D+00  0.00000000D+00 -0.00000000D+00
  0.00000000D+00  0.00000000D+00 -0.00000000D+00 -0.00000000D+00  0.00000000D+00
 -0.00000000D+00  0.00000000D+00 -0.00000000D+00  0.00000000D+00 -0.00000000D+00
  0.00000000D+00 -0.00000000D+00  0.00000000D+00 -0.43375974D-07  0.43375974D-07
 -0.00000000D+00  0.00000000D+00  0.30404414D-08 -0.00000000D+00  0.60576278D-06
 -0.60576278D-06  0.00000000D+00 -0.00000000D+00 -0.42460974D-07  0.00000000D+00
 -0.00000000D+00  0.00000000D+00  0.00000000D+00  0.00000000D+00  0.00000000D+00
 -0.00000000D+00 -0.00000000D+00 -0.00000000D+00  0.00000000D+00  0.00000000D+00
  0.00000000D+00 -0.00000000D+00 -0.00000000D+00  0.00000000D+00 -0.00000000D+00
  0.00000000D+00  0.00000000D+00 -0.00000000D+00 -0.00000000D+00 -0.00000000D+00
  0.00000000D+00 -0.00000000D+00 -0.43375974D-07  0.43375974D-07  0.00000000D+00
 -0.00000000D+00  0.30404414D-08  0.00000000D+00  0.60576278D-06 -0.60576278D-06
 -0.00000000D+00  0.00000000D+00 -0.42460974D-07
MO   22     MO 0.0        OCC NO =    0.0000000  ORB. ENERGY =    0.041098
  0.00000000D+00  0.00000000D+00 -0.00000000D+00 -0.00000000D+00  0.00000000D+00
  0.00000000D+00  0.00000000D+00 -0.00000000D+00 -0.00000000D+00  0.00000000D+00
 -0.00000000D+00 -0.11883181D-06 -0.19705378D-05  0.00000000D+00  0.30613733D-05
  0.50765468D-04 -0.00000000D+00 -0.11549045D-04 -0.19151297D-03 -0.00000000D+00
  0.15835117D-04  0.26258713D-03 -0.00000000D+00 -0.00000000D+00 -0.00000000D+00
 -0.12013807D-06 -0.19921992D-05  0.00000000D+00 -0.00000000D+00 -0.00000000D+00
 -0.00000000D+00  0.56339650D-06  0.93425679D-05 -0.00000000D+00 -0.00000000D+00
 -0.00000000D+00  0.00000000D+00  0.00000000D+00 -0.00000000D+00 -0.00000000D+00
 -0.00000000D+00  0.00000000D+00  0.00000000D+00 -0.00000000D+00 -0.00000000D+00
 -0.11883181D-06 -0.19705378D-05  0.00000000D+00  0.30613733D-05  0.50765468D-04
 -0.00000000D+00 -0.11549045D-04 -0.19151297D-03 -0.00000000D+00  0.15835117D-04
  0.26258713D-03  0.00000000D+00  0.00000000D+00  0.00000000D+00  0.12013807D-06
  0.19921992D-05 -0.00000000D+00  0.00000000D+00  0.00000000D+00  0.00000000D+00
 -0.56339650D-06 -0.93425679D-05  0.00000000D+00
MO   23     MO 0.0        OCC NO =    0.0000000  ORB. ENERGY =    0.041098
 -0.00000000D+00  0.00000000D+00  0.00000000D+00  0.00000000D+00 -0.00000000D+00
 -0.00000000D+00  0.00000000D+00  0.00000000D+00  0.00000000D+00 -0.00000000D+00
  0.00000000D+00  0.19705378D-05 -0.11883181D-06 -0.00000000D+00 -0.50765468D-04
  0.30613733D-05  0.00000000D+00  0.19151297D-03 -0.11549045D-04  0.00000000D+00
 -0.26258713D-03  0.15835117D-04  0.00000000D+00  0.00000000D+00  0.00000000D+00
  0.19921992D-05 -0.12013807D-06  0.00000000D+00  0.00000000D+00  0.00000000D+00
  0.00000000D+00 -0.93425679D-05  0.56339650D-06 -0.00000000D+00 -0.00000000D+00
 -0.00000000D+00 -0.00000000D+00 -0.00000000D+00  0.00000000D+00  0.00000000D+00
 -0.00000000D+00 -0.00000000D+00 -0.00000000D+00  0.00000000D+00  0.00000000D+00
  0.19705378D-05 -0.11883181D-06 -0.00000000D+00 -0.50765468D-04  0.30613733D-05
  0.00000000D+00  0.19151297D-03 -0.11549045D-04  0.00000000D+00 -0.26258713D-03
  0.15835117D-04 -0.00000000D+00 -0.00000000D+00 -0.00000000D+00 -0.19921992D-05
  0.12013807D-06 -0.00000000D+00 -0.00000000D+00 -0.00000000D+00 -0.00000000D+00
  0.93425679D-05 -0.56339650D-06  0.00000000D+00
MO   24     MO 0.0        OCC NO =    0.0000000  ORB. ENERGY =    0.042401
 -0.36621743D-04  0.85135544D-04 -0.32984554D-02 -0.12135665D+00  0.25341604D-02
 -0.55443245D-02  0.52737425D-03  0.62958127D-03  0.78765643D-03 -0.21697217D-03
  0.26294456D-04 -0.00000000D+00  0.00000000D+00 -0.86896065D-04  0.00000000D+00
  0.00000000D+00 -0.62980581D-05 -0.00000000D+00 -0.00000000D+00 -0.15948459D-02
  0.00000000D+00  0.00000000D+00  0.45675862D-05  0.46496336D-05  0.46496336D-05
 -0.00000000D+00 -0.00000000D+00  0.00000000D+00  0.11551116D-04  0.11098416D-04
  0.11098416D-04  0.00000000D+00  0.00000000D+00 -0.00000000D+00  0.36621743D-04
 -0.85135544D-04  0.32984554D-02  0.12135665D+00 -0.25341604D-02  0.55443245D-02
 -0.52737425D-03 -0.62958127D-03 -0.78765643D-03  0.21697217D-03  0.26294456D-04
  0.00000000D+00 -0.00000000D+00 -0.86896065D-04 -0.00000000D+00 -0.00000000D+00