 Molden2AIM, Version 3.1.0 (02/25/2015)           Time: Thu Oct 17 18:55:48 2024
GAUSSIAN             68 MOL ORBITALS     68 PRIMITIVES        2 NUCLEI
  Be   1    (CENTRE  1)   0.00000000  0.00000000  0.00000000  CHARGE =  4.0
  Be   2    (CENTRE  2)   0.00000000  0.00000000  4.63600000  CHARGE =  4.0
CENTRE ASSIGNMENTS    1  1  1  1  1  1  1  1  1  1  1  1  1  1  1  1  1  1  1  1
CENTRE ASSIGNMENTS    1  1  1  1  1  1  1  1  1  1  1  1  1  1  2  2  2  2  2  2
CENTRE ASSIGNMENTS    2  2  2  2  2  2  2  2  2  2  2  2  2  2  2  2  2  2  2  2
CENTRE ASSIGNMENTS    2  2  2  2  2  2  2  2
TYPE ASSIGNMENTS      1  1  1  1  1  1  1  1  1  1  2  3  4  2  3  4  2  3  4  2
TYPE ASSIGNMENTS      3  4  5  6  7  8  9 10  5  6  7  8  9 10  1  1  1  1  1  1
TYPE ASSIGNMENTS      1  1  1  1  2  3  4  2  3  4  2  3  4  2  3  4  5  6  7  8
TYPE ASSIGNMENTS      9 10  5  6  7  8  9 10
EXPONENTS  0.1000000D-03 0.3000000D-03 0.9000000D-03 0.2700000D-02 0.8100000D-02
EXPONENTS  0.2430000D-01 0.7290000D-01 0.2187000D+00 0.6561000D+00 0.1968300D+01
EXPONENTS  0.1000000D-03 0.1000000D-03 0.1000000D-03 0.3000000D-03 0.3000000D-03
EXPONENTS  0.3000000D-03 0.9000000D-03 0.9000000D-03 0.9000000D-03 0.2700000D-02
EXPONENTS  0.2700000D-02 0.2700000D-02 0.1000000D-03 0.1000000D-03 0.1000000D-03
EXPONENTS  0.1000000D-03 0.1000000D-03 0.1000000D-03 0.3000000D-03 0.3000000D-03
EXPONENTS  0.3000000D-03 0.3000000D-03 0.3000000D-03 0.3000000D-03 0.1000000D-03
EXPONENTS  0.3000000D-03 0.9000000D-03 0.2700000D-02 0.8100000D-02 0.2430000D-01
EXPONENTS  0.7290000D-01 0.2187000D+00 0.6561000D+00 0.1968300D+01 0.1000000D-03
EXPONENTS  0.1000000D-03 0.1000000D-03 0.3000000D-03 0.3000000D-03 0.3000000D-03
EXPONENTS  0.9000000D-03 0.9000000D-03 0.9000000D-03 0.2700000D-02 0.2700000D-02
EXPONENTS  0.2700000D-02 0.1000000D-03 0.1000000D-03 0.1000000D-03 0.1000000D-03
EXPONENTS  0.1000000D-03 0.1000000D-03 0.3000000D-03 0.3000000D-03 0.3000000D-03
EXPONENTS  0.3000000D-03 0.3000000D-03 0.3000000D-03
MO    1     MO 0.0        OCC NO =    1.0000000  ORB. ENERGY =   -0.019396
  0.11969532D-04  0.17006606D-04 -0.68894126D-04  0.17538766D-04 -0.40010893D-02
 -0.96900221D-02 -0.26140604D-01  0.41318841D-01  0.84842859D-02 -0.77111577D-03
  0.00000000D+00 -0.00000000D+00  0.12204654D-07 -0.00000000D+00 -0.00000000D+00
  0.79146549D-07 -0.00000000D+00  0.00000000D+00 -0.68265798D-05  0.00000000D+00
  0.00000000D+00  0.19335114D-04 -0.45046602D-09 -0.45046602D-09 -0.32184703D-09
  0.00000000D+00  0.00000000D+00 -0.00000000D+00 -0.74291413D-08 -0.74291413D-08
 -0.96221638D-08 -0.00000000D+00  0.00000000D+00 -0.00000000D+00  0.11969468D-04
  0.17006460D-04 -0.68855501D-04  0.18520120D-04 -0.40025768D-02 -0.96997254D-02
 -0.26148320D-01  0.41325066D-01  0.84877462D-02 -0.77150661D-03 -0.00000000D+00
  0.00000000D+00 -0.12251407D-07  0.00000000D+00  0.00000000D+00 -0.79214084D-07
  0.00000000D+00 -0.00000000D+00  0.68277019D-05 -0.00000000D+00 -0.00000000D+00
 -0.19354247D-04 -0.44612737D-09 -0.44612737D-09 -0.31750180D-09 -0.00000000D+00
 -0.00000000D+00  0.00000000D+00 -0.73786033D-08 -0.73786033D-08 -0.95716145D-08
  0.00000000D+00 -0.00000000D+00  0.00000000D+00
MO    2     MO 0.0        OCC NO =    0.0000000  ORB. ENERGY =    0.000077
  0.71224168D-03 -0.56513409D-03 -0.37535004D-03  0.19522799D-03  0.16230164D-04
  0.21556675D-03  0.29333410D-03 -0.49803749D-03 -0.13021790D-03  0.17315137D-04
  0.00000000D+00 -0.00000000D+00  0.88846078D-06  0.00000000D+00 -0.00000000D+00
 -0.81074309D-06 -0.00000000D+00  0.00000000D+00  0.97784745D-05  0.00000000D+00
 -0.00000000D+00 -0.42736990D-05 -0.65466449D-07 -0.65466449D-07 -0.66042838D-07
 -0.00000000D+00  0.00000000D+00  0.00000000D+00 -0.21435577D-06 -0.21435577D-06
 -0.21216588D-06 -0.00000000D+00  0.00000000D+00 -0.00000000D+00  0.71224168D-03
 -0.56513401D-03 -0.37535800D-03  0.19498014D-03  0.16346007D-04  0.21578256D-03
  0.29348709D-03 -0.49819020D-03 -0.13028024D-03  0.17326981D-04 -0.00000000D+00
 -0.00000000D+00 -0.88845165D-06 -0.00000000D+00  0.00000000D+00  0.81082301D-06
  0.00000000D+00 -0.00000000D+00 -0.97782789D-05  0.00000000D+00  0.00000000D+00
  0.42778749D-05 -0.65462398D-07 -0.65462398D-07 -0.66038770D-07  0.00000000D+00
 -0.00000000D+00 -0.00000000D+00 -0.21435255D-06 -0.21435255D-06 -0.21216248D-06
  0.00000000D+00 -0.00000000D+00  0.00000000D+00
MO    3     MO 0.0        OCC NO =    0.0000000  ORB. ENERGY =    0.000137
  0.54378073D-05 -0.18926189D-04 -0.64946495D-03 -0.92542642D-02 -0.25506217D-03
 -0.88825943D-05 -0.10515028D-03  0.11668291D-03 -0.14339919D-05  0.62296594D-05
  0.00000000D+00 -0.00000000D+00 -0.23991187D-05 -0.00000000D+00 -0.00000000D+00
  0.19829666D-04  0.00000000D+00 -0.00000000D+00  0.10648435D-04 -0.00000000D+00
 -0.00000000D+00 -0.12671901D-03 -0.19740502D-05 -0.19740502D-05 -0.19796960D-05
 -0.00000000D+00  0.00000000D+00 -0.00000000D+00 -0.30062775D-05 -0.30062775D-05
 -0.30134374D-05  0.00000000D+00 -0.00000000D+00 -0.00000000D+00 -0.54445638D-05
  0.18930088D-04  0.64946577D-03  0.92542609D-02  0.25506102D-03  0.88729440D-05
  0.10513728D-03 -0.11665784D-03  0.14495788D-05 -0.62296594D-05 -0.00000000D+00
  0.00000000D+00 -0.23991107D-05  0.00000000D+00  0.00000000D+00  0.19829661D-04
 -0.00000000D+00  0.00000000D+00  0.10648297D-04  0.00000000D+00  0.00000000D+00
 -0.12671850D-03  0.19740507D-05  0.19740507D-05  0.19796965D-05  0.00000000D+00
  0.00000000D+00 -0.00000000D+00  0.30062791D-05  0.30062791D-05  0.30134391D-05
 -0.00000000D+00 -0.00000000D+00 -0.00000000D+00
MO    4     MO 0.0        OCC NO =    0.0000000  ORB. ENERGY =    0.000210
  0.00000000D+00  0.00000000D+00  0.00000000D+00 -0.00000000D+00  0.00000000D+00
 -0.00000000D+00 -0.00000000D+00  0.00000000D+00  0.00000000D+00 -0.00000000D+00
 -0.60635556D-08 -0.92821817D-05  0.00000000D+00  0.51016360D-08  0.78100430D-05
  0.00000000D+00 -0.25308532D-08 -0.38748651D-05  0.00000000D+00  0.17984512D-08
  0.27509460D-05 -0.00000000D+00 -0.00000000D+00 -0.00000000D+00  0.00000000D+00
 -0.00000000D+00  0.75421059D-09  0.11545695D-05  0.00000000D+00  0.00000000D+00
  0.00000000D+00  0.00000000D+00 -0.86421184D-09 -0.13229719D-05 -0.00000000D+00
 -0.00000000D+00 -0.00000000D+00  0.00000000D+00 -0.00000000D+00  0.00000000D+00
 -0.00000000D+00  0.00000000D+00 -0.00000000D+00  0.00000000D+00 -0.60635556D-08
 -0.92821817D-05 -0.00000000D+00  0.51016360D-08  0.78100430D-05 -0.00000000D+00
 -0.25308532D-08 -0.38747784D-05 -0.00000000D+00  0.17984512D-08  0.27506302D-05
 -0.00000000D+00  0.00000000D+00  0.00000000D+00 -0.00000000D+00  0.00000000D+00
 -0.75421059D-09 -0.11545695D-05 -0.00000000D+00 -0.00000000D+00  0.00000000D+00
 -0.00000000D+00  0.86421184D-09  0.13229718D-05
MO    5     MO 0.0        OCC NO =    0.0000000  ORB. ENERGY =    0.000210
  0.00000000D+00 -0.00000000D+00 -0.00000000D+00 -0.00000000D+00  0.00000000D+00
 -0.00000000D+00  0.00000000D+00 -0.00000000D+00 -0.00000000D+00  0.00000000D+00
  0.92821817D-05 -0.60635556D-08  0.00000000D+00 -0.78100430D-05  0.51016360D-08
  0.00000000D+00  0.38748651D-05 -0.25308532D-08 -0.00000000D+00 -0.27509460D-05
  0.17984512D-08 -0.00000000D+00  0.00000000D+00 -0.00000000D+00  0.00000000D+00
 -0.00000000D+00 -0.11545695D-05  0.75421059D-09 -0.00000000D+00 -0.00000000D+00
 -0.00000000D+00  0.00000000D+00  0.13229719D-05 -0.86421184D-09 -0.00000000D+00
  0.00000000D+00  0.00000000D+00  0.00000000D+00 -0.00000000D+00  0.00000000D+00
 -0.00000000D+00 -0.00000000D+00 -0.00000000D+00  0.00000000D+00  0.92821817D-05
 -0.60635556D-08 -0.00000000D+00 -0.78100430D-05  0.51016360D-08 -0.00000000D+00
  0.38747784D-05 -0.25308532D-08 -0.00000000D+00 -0.27506302D-05  0.17984512D-08
 -0.00000000D+00 -0.00000000D+00  0.00000000D+00 -0.00000000D+00  0.00000000D+00
  0.11545695D-05 -0.75421059D-09  0.00000000D+00  0.00000000D+00  0.00000000D+00
 -0.00000000D+00 -0.13229718D-05  0.86421184D-09
MO    6     MO 0.0        OCC NO =    0.0000000  ORB. ENERGY =    0.000326
 -0.11427320D-04  0.11744687D-03 -0.24215436D-03 -0.20397483D-04  0.92071825D-04
 -0.49605231D-04  0.59127974D-04 -0.52936156D-04  0.10079508D-04 -0.57677645D-05
  0.00000000D+00  0.00000000D+00  0.30374666D-06 -0.00000000D+00 -0.00000000D+00
 -0.50424311D-07  0.00000000D+00  0.00000000D+00  0.69394505D-04 -0.00000000D+00
 -0.00000000D+00 -0.27364084D-04  0.47658010D-07  0.47658010D-07 -0.90479005D-07
  0.00000000D+00 -0.00000000D+00 -0.00000000D+00 -0.83834449D-07 -0.83834449D-07
  0.11198895D-06 -0.00000000D+00  0.00000000D+00  0.00000000D+00 -0.11427313D-04
  0.11744686D-03 -0.24215499D-03 -0.20411412D-04  0.92079715D-04 -0.49591633D-04
  0.59137973D-04 -0.52947552D-04  0.10074313D-04 -0.57677645D-05 -0.00000000D+00
 -0.00000000D+00 -0.30374182D-06  0.00000000D+00  0.00000000D+00  0.50415306D-07
 -0.00000000D+00 -0.00000000D+00 -0.69394494D-04  0.00000000D+00  0.00000000D+00
  0.27364330D-04  0.47657108D-07  0.47657108D-07 -0.90479986D-07  0.00000000D+00
 -0.00000000D+00 -0.00000000D+00 -0.83836025D-07 -0.83836025D-07  0.11198697D-06
 -0.00000000D+00  0.00000000D+00  0.00000000D+00
MO    7     MO 0.0        OCC NO =    0.0000000  ORB. ENERGY =    0.000326
 -0.00000000D+00  0.00000000D+00 -0.00000000D+00 -0.00000000D+00  0.00000000D+00
 -0.00000000D+00  0.00000000D+00 -0.00000000D+00  0.00000000D+00 -0.00000000D+00
  0.15459294D-07 -0.18432730D-06  0.00000000D+00 -0.21439252D-07  0.25562882D-06
  0.00000000D+00  0.70420645D-05 -0.83965269D-04  0.00000000D+00 -0.30435058D-05
  0.36288929D-04 -0.00000000D+00  0.00000000D+00  0.00000000D+00 -0.00000000D+00
  0.00000000D+00 -0.13353121D-07  0.15921442D-06 -0.00000000D+00 -0.00000000D+00
  0.00000000D+00  0.00000000D+00  0.19115674D-07 -0.22792356D-06 -0.00000000D+00
  0.00000000D+00 -0.00000000D+00  0.00000000D+00  0.00000000D+00 -0.00000000D+00
  0.00000000D+00 -0.00000000D+00  0.00000000D+00 -0.00000000D+00 -0.15459152D-07
  0.18432588D-06 -0.00000000D+00  0.21439252D-07 -0.25562545D-06  0.00000000D+00
 -0.70420645D-05  0.83965267D-04 -0.00000000D+00  0.30435058D-05 -0.36288937D-04
  0.00000000D+00  0.00000000D+00  0.00000000D+00 -0.00000000D+00 -0.00000000D+00
 -0.13353093D-07  0.15921408D-06 -0.00000000D+00 -0.00000000D+00  0.00000000D+00
 -0.00000000D+00  0.19115596D-07 -0.22792268D-06
MO    8     MO 0.0        OCC NO =    0.0000000  ORB. ENERGY =    0.000326
  0.00000000D+00 -0.00000000D+00  0.00000000D+00  0.00000000D+00 -0.00000000D+00
  0.00000000D+00 -0.00000000D+00  0.00000000D+00 -0.00000000D+00  0.00000000D+00
  0.18432730D-06  0.15459294D-07 -0.00000000D+00 -0.25562882D-06 -0.21439252D-07
 -0.00000000D+00  0.83965269D-04  0.70420645D-05 -0.00000000D+00 -0.36288929D-04
 -0.30435058D-05  0.00000000D+00 -0.00000000D+00 -0.00000000D+00  0.00000000D+00
 -0.00000000D+00 -0.15921442D-06 -0.13353121D-07  0.00000000D+00  0.00000000D+00
 -0.00000000D+00  0.00000000D+00  0.22792356D-06  0.19115674D-07  0.00000000D+00
 -0.00000000D+00  0.00000000D+00 -0.00000000D+00 -0.00000000D+00  0.00000000D+00
 -0.00000000D+00  0.00000000D+00 -0.00000000D+00  0.00000000D+00 -0.18432588D-06
 -0.15459152D-07  0.00000000D+00  0.25562545D-06  0.21439252D-07  0.00000000D+00
 -0.83965267D-04 -0.70420645D-05  0.00000000D+00  0.36288937D-04  0.30435058D-05
 -0.00000000D+00 -0.00000000D+00 -0.00000000D+00  0.00000000D+00  0.00000000D+00
 -0.15921408D-06 -0.13353093D-07  0.00000000D+00  0.00000000D+00 -0.00000000D+00
 -0.00000000D+00  0.22792268D-06  0.19115596D-07
MO    9     MO 0.0        OCC NO =    0.0000000  ORB. ENERGY =    0.000329
 -0.23977710D-02  0.13792305D-02  0.10879771D-02 -0.35641652D-03  0.42475545D-03
  0.15069047D-03  0.85242812D-03 -0.11974375D-02 -0.18448618D-03  0.62770333D-06
 -0.00000000D+00  0.00000000D+00 -0.26608397D-05  0.00000000D+00  0.00000000D+00
  0.20156240D-05  0.00000000D+00  0.00000000D+00 -0.18929122D-04 -0.00000000D+00
 -0.00000000D+00  0.28672207D-04  0.12429114D-06  0.12429114D-06  0.12728759D-06
 -0.00000000D+00 -0.00000000D+00 -0.00000000D+00  0.52301433D-06  0.52301433D-06
  0.50340805D-06  0.00000000D+00 -0.00000000D+00  0.00000000D+00 -0.23977706D-02
  0.13792301D-02  0.10879346D-02 -0.35736723D-03  0.42500291D-03  0.15115587D-03
  0.85275609D-03 -0.11977680D-02 -0.18462646D-03  0.65139025D-06  0.00000000D+00
 -0.00000000D+00  0.26611164D-05  0.00000000D+00 -0.00000000D+00 -0.20160838D-05
 -0.00000000D+00 -0.00000000D+00  0.18929233D-04  0.00000000D+00  0.00000000D+00
 -0.28657434D-04  0.12423762D-06  0.12423762D-06  0.12723425D-06 -0.00000000D+00
 -0.00000000D+00 -0.00000000D+00  0.52291438D-06  0.52291438D-06  0.50330917D-06
 -0.00000000D+00  0.00000000D+00  0.00000000D+00
MO   10     MO 0.0        OCC NO =    0.0000000  ORB. ENERGY =    0.000331
 -0.00000000D+00  0.00000000D+00  0.00000000D+00  0.00000000D+00  0.00000000D+00
  0.00000000D+00  0.00000000D+00 -0.00000000D+00 -0.00000000D+00 -0.00000000D+00
  0.00000000D+00 -0.00000000D+00  0.00000000D+00  0.00000000D+00  0.00000000D+00
 -0.00000000D+00  0.00000000D+00  0.00000000D+00 -0.00000000D+00 -0.00000000D+00
 -0.00000000D+00  0.00000000D+00 -0.15197957D-07  0.15197957D-07  0.00000000D+00
 -0.15349973D-06 -0.00000000D+00 -0.00000000D+00  0.16861208D-07 -0.16861208D-07
  0.00000000D+00  0.17029865D-06  0.00000000D+00 -0.00000000D+00 -0.00000000D+00
  0.00000000D+00  0.00000000D+00 -0.00000000D+00  0.00000000D+00  0.00000000D+00
  0.00000000D+00 -0.00000000D+00 -0.00000000D+00  0.00000000D+00 -0.00000000D+00
 -0.00000000D+00  0.00000000D+00  0.00000000D+00  0.00000000D+00 -0.00000000D+00
 -0.00000000D+00 -0.00000000D+00  0.00000000D+00  0.00000000D+00  0.00000000D+00
  0.00000000D+00 -0.15197965D-07  0.15197965D-07 -0.00000000D+00 -0.15349983D-06
  0.00000000D+00 -0.00000000D+00  0.16861163D-07 -0.16861163D-07 -0.00000000D+00
  0.17029810D-06  0.00000000D+00  0.00000000D+00
MO   11     MO 0.0        OCC NO =    0.0000000  ORB. ENERGY =    0.000331
  0.00000000D+00 -0.00000000D+00 -0.00000000D+00 -0.00000000D+00 -0.00000000D+00
 -0.00000000D+00 -0.00000000D+00  0.00000000D+00  0.00000000D+00  0.00000000D+00
  0.00000000D+00  0.00000000D+00  0.00000000D+00 -0.00000000D+00 -0.00000000D+00
  0.00000000D+00  0.00000000D+00  0.00000000D+00  0.00000000D+00 -0.00000000D+00
 -0.00000000D+00 -0.00000000D+00  0.76749865D-07 -0.76749865D-07 -0.00000000D+00
 -0.30395913D-07 -0.00000000D+00 -0.00000000D+00 -0.85149326D-07  0.85149326D-07
 -0.00000000D+00  0.33722432D-07  0.00000000D+00  0.00000000D+00  0.00000000D+00
 -0.00000000D+00 -0.00000000D+00  0.00000000D+00 -0.00000000D+00 -0.00000000D+00
 -0.00000000D+00  0.00000000D+00  0.00000000D+00 -0.00000000D+00 -0.00000000D+00
 -0.00000000D+00 -0.00000000D+00 -0.00000000D+00  0.00000000D+00  0.00000000D+00
 -0.00000000D+00 -0.00000000D+00 -0.00000000D+00  0.00000000D+00  0.00000000D+00
 -0.00000000D+00  0.76749913D-07 -0.76749913D-07  0.00000000D+00 -0.30395933D-07
 -0.00000000D+00  0.00000000D+00 -0.85149056D-07  0.85149056D-07  0.00000000D+00
  0.33722315D-07 -0.00000000D+00 -0.00000000D+00
MO   12     MO 0.0        OCC NO =    0.0000000  ORB. ENERGY =    0.000429
  0.28022239D-04 -0.37689818D-04 -0.14582415D-02 -0.25155018D-01 -0.40428104D-04
  0.45726762D-03  0.13171158D-03 -0.25707028D-03 -0.75487205D-04  0.11381564D-04
  0.00000000D+00 -0.00000000D+00 -0.20866621D-04 -0.00000000D+00 -0.00000000D+00
  0.39836115D-04  0.00000000D+00  0.00000000D+00  0.20445445D-04 -0.00000000D+00
 -0.00000000D+00 -0.34304791D-03 -0.35893092D-05 -0.35893092D-05 -0.28743392D-05
 -0.00000000D+00 -0.00000000D+00 -0.00000000D+00 -0.59561902D-05 -0.59561902D-05
 -0.62938770D-05  0.00000000D+00 -0.00000000D+00 -0.00000000D+00 -0.28086119D-04
  0.37731425D-04  0.14582795D-02  0.25155014D-01  0.40442344D-04 -0.45723647D-03
 -0.13165258D-03  0.25697227D-03  0.75424857D-04 -0.11369721D-04 -0.00000000D+00
  0.00000000D+00 -0.20866551D-04  0.00000000D+00  0.00000000D+00  0.39836050D-04
 -0.00000000D+00 -0.00000000D+00  0.20446687D-04  0.00000000D+00  0.00000000D+00
 -0.34305062D-03  0.35893123D-05  0.35893122D-05  0.28743423D-05  0.00000000D+00
  0.00000000D+00  0.00000000D+00  0.59562049D-05  0.59562049D-05  0.62938908D-05
 -0.00000000D+00 -0.00000000D+00 -0.00000000D+00
MO   13     MO 0.0        OCC NO =    0.0000000  ORB. ENERGY =    0.000432
 -0.21654986D-05 -0.27151739D-05 -0.36671448D-05  0.44940187D-02 -0.74490223D-04
  0.10227792D-03  0.10873892D-04 -0.37019981D-04 -0.17103991D-04  0.36240985D-05
 -0.00000000D+00  0.00000000D+00  0.44280275D-05  0.00000000D+00  0.00000000D+00
  0.24530247D-05  0.00000000D+00 -0.00000000D+00  0.39137433D-05 -0.00000000D+00
  0.00000000D+00  0.53788148D-04  0.19729616D-05  0.19729618D-05 -0.22122940D-05
  0.00000000D+00  0.00000000D+00 -0.00000000D+00 -0.24075302D-05 -0.24075303D-05
 -0.11104627D-06 -0.00000000D+00 -0.00000000D+00  0.00000000D+00  0.21546369D-05
  0.27222897D-05  0.36735885D-05 -0.44940193D-02  0.74492724D-04 -0.10227266D-03
 -0.10863893D-04  0.37004026D-04  0.17093599D-04 -0.36240985D-05  0.00000000D+00
 -0.00000000D+00  0.44280394D-05 -0.00000000D+00 -0.00000000D+00  0.24530135D-05
  0.00000000D+00 -0.00000000D+00  0.39139478D-05 -0.00000000D+00  0.00000000D+00
  0.53787701D-04 -0.19729611D-05 -0.19729613D-05  0.22122945D-05 -0.00000000D+00
 -0.00000000D+00  0.00000000D+00  0.24075327D-05  0.24075328D-05  0.11104864D-06
  0.00000000D+00  0.00000000D+00 -0.00000000D+00
MO   14     MO 0.0        OCC NO =    0.0000000  ORB. ENERGY =    0.000432
  0.00000000D+00  0.00000000D+00  0.00000000D+00 -0.84417583D-10  0.00000000D+00
 -0.00000000D+00 -0.00000000D+00  0.00000000D+00  0.00000000D+00 -0.00000000D+00
  0.00000000D+00 -0.00000000D+00 -0.14254109D-12  0.00000000D+00  0.00000000D+00
 -0.00000000D+00  0.00000000D+00  0.00000000D+00 -0.00000000D+00 -0.00000000D+00
 -0.00000000D+00 -0.00000000D+00 -0.32889875D-05  0.32889874D-05  0.47731761D-13
 -0.64597058D-09  0.00000000D+00  0.00000000D+00  0.17954225D-05 -0.17954223D-05
  0.11255678D-13  0.35263290D-09 -0.00000000D+00 -0.00000000D+00 -0.00000000D+00
 -0.00000000D+00 -0.00000000D+00  0.84417583D-10 -0.00000000D+00  0.00000000D+00
  0.00000000D+00 -0.00000000D+00 -0.00000000D+00  0.00000000D+00 -0.00000000D+00
  0.00000000D+00 -0.14254109D-12 -0.00000000D+00 -0.00000000D+00 -0.00000000D+00
  0.00000000D+00  0.00000000D+00 -0.00000000D+00 -0.00000000D+00 -0.00000000D+00
 -0.00000000D+00  0.32889875D-05 -0.32889874D-05 -0.47731761D-13  0.64597058D-09
 -0.00000000D+00 -0.00000000D+00 -0.17954224D-05  0.17954223D-05 -0.11255678D-13
 -0.35263290D-09  0.00000000D+00  0.00000000D+00
MO   15     MO 0.0        OCC NO =    0.0000000  ORB. ENERGY =    0.000432
 -0.00000000D+00  0.00000000D+00  0.00000000D+00  0.00000000D+00 -0.00000000D+00
  0.00000000D+00 -0.00000000D+00  0.00000000D+00 -0.00000000D+00  0.00000000D+00
  0.00000000D+00  0.00000000D+00  0.00000000D+00  0.00000000D+00 -0.00000000D+00
 -0.00000000D+00 -0.00000000D+00  0.00000000D+00  0.00000000D+00  0.00000000D+00
 -0.00000000D+00  0.00000000D+00  0.32298601D-09 -0.32298601D-09 -0.00000000D+00
 -0.65779749D-05 -0.00000000D+00  0.00000000D+00 -0.17630894D-09  0.17630894D-09
  0.00000000D+00  0.35908448D-05  0.00000000D+00 -0.00000000D+00 -0.00000000D+00
 -0.00000000D+00 -0.00000000D+00 -0.00000000D+00  0.00000000D+00 -0.00000000D+00
  0.00000000D+00 -0.00000000D+00  0.00000000D+00 -0.00000000D+00 -0.00000000D+00
 -0.00000000D+00  0.00000000D+00 -0.00000000D+00 -0.00000000D+00 -0.00000000D+00
 -0.00000000D+00  0.00000000D+00  0.00000000D+00  0.00000000D+00 -0.00000000D+00
  0.00000000D+00 -0.32298601D-09  0.32298601D-09  0.00000000D+00  0.65779749D-05
  0.00000000D+00 -0.00000000D+00  0.17630894D-09 -0.17630894D-09 -0.00000000D+00
 -0.35908448D-05 -0.00000000D+00  0.00000000D+00
MO   16     MO 0.0        OCC NO =    0.0000000  ORB. ENERGY =    0.000445
  0.00000000D+00  0.00000000D+00  0.00000000D+00  0.00000000D+00 -0.00000000D+00
  0.00000000D+00 -0.00000000D+00 -0.00000000D+00 -0.00000000D+00 -0.00000000D+00
 -0.14848506D-08 -0.23263552D-05 -0.00000000D+00 -0.38359350D-08 -0.60094221D-05
  0.00000000D+00  0.64748956D-08  0.10144142D-04  0.00000000D+00 -0.41408242D-08
 -0.64896541D-05  0.00000000D+00  0.00000000D+00 -0.00000000D+00 -0.00000000D+00
  0.00000000D+00  0.29355255D-08  0.45990874D-05 -0.00000000D+00 -0.00000000D+00
 -0.00000000D+00 -0.00000000D+00 -0.12868138D-08 -0.20160459D-05 -0.00000000D+00
 -0.00000000D+00 -0.00000000D+00 -0.00000000D+00  0.00000000D+00 -0.00000000D+00
  0.00000000D+00  0.00000000D+00  0.00000000D+00 -0.00000000D+00 -0.14848506D-08
 -0.23263552D-05 -0.00000000D+00 -0.38359350D-08 -0.60094221D-05 -0.00000000D+00
  0.64748956D-08  0.10144073D-04  0.00000000D+00 -0.41408242D-08 -0.64894084D-05
  0.00000000D+00 -0.00000000D+00  0.00000000D+00  0.00000000D+00 -0.00000000D+00
 -0.29355255D-08 -0.45990874D-05  0.00000000D+00  0.00000000D+00  0.00000000D+00
  0.00000000D+00  0.12868138D-08  0.20160460D-05
MO   17     MO 0.0        OCC NO =    0.0000000  ORB. ENERGY =    0.000445
  0.00000000D+00 -0.00000000D+00 -0.00000000D+00 -0.00000000D+00  0.00000000D+00
 -0.00000000D+00  0.00000000D+00  0.00000000D+00  0.00000000D+00 -0.00000000D+00
  0.23263552D-05 -0.14848506D-08  0.00000000D+00  0.60094221D-05 -0.38359350D-08
  0.00000000D+00 -0.10144142D-04  0.64748956D-08  0.00000000D+00  0.64896541D-05
 -0.41408242D-08 -0.00000000D+00 -0.00000000D+00  0.00000000D+00 -0.00000000D+00
  0.00000000D+00 -0.45990874D-05  0.29355255D-08  0.00000000D+00 -0.00000000D+00
  0.00000000D+00 -0.00000000D+00  0.20160459D-05 -0.12868138D-08  0.00000000D+00
 -0.00000000D+00  0.00000000D+00  0.00000000D+00 -0.00000000D+00  0.00000000D+00
 -0.00000000D+00  0.00000000D+00 -0.00000000D+00  0.00000000D+00  0.23263552D-05
 -0.14848506D-08  0.00000000D+00  0.60094221D-05 -0.38359350D-08 -0.00000000D+00
 -0.10144073D-04  0.64748956D-08 -0.00000000D+00  0.64894084D-05 -0.41408242D-08
 -0.00000000D+00  0.00000000D+00 -0.00000000D+00  0.00000000D+00 -0.00000000D+00
  0.45990874D-05 -0.29355255D-08 -0.00000000D+00  0.00000000D+00 -0.00000000D+00
  0.00000000D+00 -0.20160460D-05  0.12868138D-08
MO   18     MO 0.0        OCC NO =    0.0000000  ORB. ENERGY =    0.000859
 -0.36973285D-02  0.27751171D-02  0.19554278D-02 -0.95023944D-03  0.38532086D-04
 -0.85316287D-03 -0.98538357D-03  0.17363652D-02  0.48759882D-03 -0.70930476D-04
 -0.00000000D+00  0.00000000D+00 -0.39205607D-05 -0.00000000D+00 -0.00000000D+00
  0.36454096D-05 -0.00000000D+00  0.00000000D+00 -0.50434780D-04  0.00000000D+00
 -0.00000000D+00  0.25361706D-04  0.14542316D-06  0.14542316D-06  0.14426964D-06
  0.00000000D+00 -0.00000000D+00  0.00000000D+00  0.11554317D-05  0.11554317D-05
  0.11377841D-05  0.00000000D+00  0.00000000D+00  0.00000000D+00 -0.36973257D-02
  0.27751109D-02  0.19553422D-02 -0.95085079D-03  0.37966533D-04 -0.85402700D-03
 -0.98601550D-03  0.17370307D-02  0.48783781D-03 -0.70954163D-04  0.00000000D+00
 -0.00000000D+00  0.39226521D-05 -0.00000000D+00 -0.00000000D+00 -0.36517763D-05
  0.00000000D+00  0.00000000D+00  0.50430718D-04 -0.00000000D+00 -0.00000000D+00
 -0.25356767D-04  0.14518191D-06  0.14518191D-06  0.14402894D-06 -0.00000000D+00
  0.00000000D+00 -0.00000000D+00  0.11546075D-05  0.11546075D-05  0.11369534D-05
 -0.00000000D+00 -0.00000000D+00 -0.00000000D+00
MO   19     MO 0.0        OCC NO =    0.0000000  ORB. ENERGY =    0.000912
 -0.00000000D+00  0.00000000D+00 -0.00000000D+00 -0.00000000D+00 -0.00000000D+00
 -0.00000000D+00 -0.00000000D+00  0.00000000D+00  0.00000000D+00 -0.00000000D+00
  0.13646884D-08 -0.62287103D-05 -0.00000000D+00 -0.11450964D-07  0.52263587D-04
  0.00000000D+00  0.63082459D-08 -0.28794843D-04  0.00000000D+00 -0.57374979D-08
  0.26194635D-04 -0.00000000D+00 -0.00000000D+00 -0.00000000D+00 -0.00000000D+00
 -0.00000000D+00  0.16441830D-09 -0.75041120D-06 -0.00000000D+00 -0.00000000D+00
 -0.00000000D+00  0.00000000D+00  0.10039549D-08 -0.45820894D-05 -0.00000000D+00
  0.00000000D+00  0.00000000D+00  0.00000000D+00  0.00000000D+00  0.00000000D+00
  0.00000000D+00 -0.00000000D+00 -0.00000000D+00  0.00000000D+00  0.13646884D-08
 -0.62287104D-05 -0.00000000D+00 -0.11450964D-07  0.52263588D-04  0.00000000D+00
  0.63082459D-08 -0.28795805D-04  0.00000000D+00 -0.57374979D-08  0.26197144D-04
 -0.00000000D+00  0.00000000D+00  0.00000000D+00  0.00000000D+00  0.00000000D+00
 -0.16441830D-09  0.75041107D-06  0.00000000D+00  0.00000000D+00  0.00000000D+00
 -0.00000000D+00 -0.10039549D-08  0.45820913D-05
MO   20     MO 0.0        OCC NO =    0.0000000  ORB. ENERGY =    0.000912
 -0.00000000D+00  0.00000000D+00  0.00000000D+00 -0.00000000D+00  0.00000000D+00
 -0.00000000D+00  0.00000000D+00 -0.00000000D+00  0.00000000D+00 -0.00000000D+00
 -0.62287103D-05 -0.13646884D-08  0.00000000D+00  0.52263587D-04  0.11450964D-07
 -0.00000000D+00 -0.28794843D-04 -0.63082459D-08  0.00000000D+00  0.26194635D-04
  0.57374979D-08 -0.00000000D+00  0.00000000D+00  0.00000000D+00  0.00000000D+00
  0.00000000D+00 -0.75041120D-06 -0.16441830D-09  0.00000000D+00  0.00000000D+00
  0.00000000D+00 -0.00000000D+00 -0.45820894D-05 -0.10039549D-08 -0.00000000D+00
  0.00000000D+00 -0.00000000D+00  0.00000000D+00 -0.00000000D+00 -0.00000000D+00
 -0.00000000D+00  0.00000000D+00  0.00000000D+00  0.00000000D+00 -0.62287104D-05
 -0.13646884D-08  0.00000000D+00  0.52263588D-04  0.11450964D-07 -0.00000000D+00
 -0.28795805D-04 -0.63082459D-08 -0.00000000D+00  0.26197144D-04  0.57374979D-08
 -0.00000000D+00 -0.00000000D+00 -0.00000000D+00 -0.00000000D+00 -0.00000000D+00
  0.75041107D-06  0.16441830D-09 -0.00000000D+00 -0.00000000D+00 -0.00000000D+00
  0.00000000D+00  0.45820913D-05  0.10039549D-08
MO   21     MO 0.0        OCC NO =    0.0000000  ORB. ENERGY =    0.000975
  0.39436816D-04 -0.88957163D-04 -0.20561875D-02 -0.31015021D-01 -0.14060343D-02
 -0.50448398D-03 -0.71734889D-03  0.90551711D-03  0.67049513D-04  0.23390832D-04
  0.00000000D+00 -0.00000000D+00 -0.30289839D-04 -0.00000000D+00 -0.00000000D+00
  0.92429549D-04  0.00000000D+00  0.00000000D+00  0.47590963D-04 -0.00000000D+00
 -0.00000000D+00 -0.42427018D-03 -0.33390926D-05 -0.33390926D-05 -0.33285777D-05
  0.00000000D+00 -0.00000000D+00  0.00000000D+00 -0.13363593D-04 -0.13363593D-04
 -0.13478327D-04  0.00000000D+00 -0.00000000D+00 -0.00000000D+00 -0.39742232D-04
  0.89170638D-04  0.20563373D-02  0.31014920D-01  0.14060316D-02  0.50433835D-03
  0.71716991D-03 -0.90519345D-03 -0.66846884D-04 -0.23426362D-04 -0.00000000D+00
  0.00000000D+00 -0.30289517D-04  0.00000000D+00  0.00000000D+00  0.92429325D-04
 -0.00000000D+00 -0.00000000D+00  0.47593305D-04  0.00000000D+00  0.00000000D+00
 -0.42426714D-03  0.33391043D-05  0.33391043D-05  0.33285891D-05 -0.00000000D+00
  0.00000000D+00 -0.00000000D+00  0.13363696D-04  0.13363696D-04  0.13478431D-04
 -0.00000000D+00 -0.00000000D+00  0.00000000D+00
MO   22     MO 0.0        OCC NO =    0.0000000  ORB. ENERGY =    0.001191
 -0.17171103D-03 -0.45704038D-03  0.12317992D-02  0.35449645D-04 -0.31271319D-03
  0.23664766D-03 -0.97309082D-04  0.11236825D-04 -0.73549237D-04  0.23864570D-04
 -0.00000000D+00 -0.00000000D+00 -0.36010214D-06  0.00000000D+00  0.00000000D+00
  0.88321165D-06 -0.00000000D+00 -0.00000000D+00 -0.30673911D-03  0.00000000D+00
  0.00000000D+00  0.11829943D-03 -0.21542274D-07 -0.21542274D-07  0.58485407D-07
 -0.00000000D+00  0.00000000D+00  0.00000000D+00  0.53860792D-06  0.53860792D-06
 -0.63928552D-06  0.00000000D+00 -0.00000000D+00 -0.00000000D+00 -0.17171110D-03
 -0.45704025D-03  0.12318151D-02  0.35842102D-04 -0.31272050D-03  0.23664723D-03
 -0.97304083D-04  0.11243662D-04 -0.73559629D-04  0.23864570D-04  0.00000000D+00
  0.00000000D+00  0.36004783D-06 -0.00000000D+00 -0.00000000D+00 -0.88307095D-06
  0.00000000D+00  0.00000000D+00  0.30673919D-03 -0.00000000D+00 -0.00000000D+00
 -0.11830464D-03 -0.21537091D-07 -0.21537091D-07  0.58491648D-07  0.00000000D+00
  0.00000000D+00  0.00000000D+00  0.53864399D-06  0.53864399D-06 -0.63925879D-06
 -0.00000000D+00 -0.00000000D+00 -0.00000000D+00
MO   23     MO 0.0        OCC NO =    0.0000000  ORB. ENERGY =    0.001191
  0.00000000D+00  0.00000000D+00 -0.00000000D+00 -0.00000000D+00  0.00000000D+00
 -0.00000000D+00  0.00000000D+00 -0.00000000D+00  0.00000000D+00 -0.00000000D+00
 -0.64559712D-08 -0.10609633D-06  0.00000000D+00  0.93690573D-07  0.15396895D-05
 -0.00000000D+00 -0.22547158D-04 -0.37053464D-03  0.00000000D+00  0.91672584D-05
  0.15065261D-03 -0.00000000D+00  0.00000000D+00 -0.00000000D+00 -0.00000000D+00
  0.00000000D+00  0.56308864D-08  0.92536672D-07 -0.00000000D+00 -0.00000000D+00
  0.00000000D+00 -0.00000000D+00 -0.82918172D-07 -0.13626575D-05  0.00000000D+00
  0.00000000D+00 -0.00000000D+00  0.00000000D+00  0.00000000D+00 -0.00000000D+00
  0.00000000D+00  0.00000000D+00  0.00000000D+00 -0.00000000D+00  0.64555436D-08
  0.10608878D-06 -0.00000000D+00 -0.93686634D-07 -0.15396214D-05  0.00000000D+00
  0.22547155D-04  0.37053461D-03 -0.00000000D+00 -0.91672672D-05 -0.15065276D-03
  0.00000000D+00  0.00000000D+00  0.00000000D+00 -0.00000000D+00 -0.00000000D+00
  0.56309377D-08  0.92537516D-07 -0.00000000D+00 -0.00000000D+00  0.00000000D+00
  0.00000000D+00 -0.82917840D-07 -0.13626521D-05
MO   24     MO 0.0        OCC NO =    0.0000000  ORB. ENERGY =    0.001191
  0.00000000D+00  0.00000000D+00 -0.00000000D+00 -0.00000000D+00  0.00000000D+00
 -0.00000000D+00  0.00000000D+00 -0.00000000D+00  0.00000000D+00 -0.00000000D+00
 -0.10609633D-06  0.64559712D-08  0.00000000D+00  0.15396895D-05 -0.93690573D-07
 -0.00000000D+00 -0.37053464D-03  0.22547158D-04  0.00000000D+00  0.15065261D-03
 -0.91672584D-05 -0.00000000D+00  0.00000000D+00  0.00000000D+00 -0.00000000D+00
 -0.00000000D+00  0.92536672D-07 -0.56308864D-08 -0.00000000D+00 -0.00000000D+00
  0.00000000D+00  0.00000000D+00 -0.13626575D-05  0.82918172D-07  0.00000000D+00
  0.00000000D+00 -0.00000000D+00  0.00000000D+00  0.00000000D+00 -0.00000000D+00
  0.00000000D+00 -0.00000000D+00  0.00000000D+00 -0.00000000D+00  0.10608878D-06
 -0.64555436D-08 -0.00000000D+00 -0.15396214D-05  0.93686634D-07  0.00000000D+00