[Molden Format]
[Title]
 Molden2AIM, Version 3.1.0 (02/25/2015)           Time: Tue Oct 29 15:53:58 2024

[Atoms] AU
BE       1       4     0.00000000     0.00000000     0.00000000
[GTO]
    1 0
 S   6 1.0
    0.1682800000D+04      0.2285740532D-02
    0.2517150000D+03      0.1759380410D-01
    0.5741160000D+02      0.8633152009D-01
    0.1651710000D+02      0.2818350656D+00
    0.4853640000D+01      0.6405941491D+00
    0.6268630000D+00      0.1444670336D+00
 S   3 1.0
    0.8309380000D+01      0.1086210323D+00
    0.1740750000D+01      0.9273012759D+00
    0.4858160000D+00     -0.2971690884D-02
 P   3 1.0
    0.8309380000D+01      0.3613440323D-01
    0.1740750000D+01      0.2169580194D+00
    0.4858160000D+00      0.8418390753D+00
 S   1 1.0
    0.1636130000D+00      0.1000000000D+01
 P   1 1.0
    0.1636130000D+00      0.1000000000D+01
 S   1 1.0
    0.5672850000D-01      0.1000000000D+01
 P   1 1.0
    0.5672850000D-01      0.1000000000D+01
 S   1 1.0
    0.2070000000D-01      0.1000000000D+01
 P   1 1.0
    0.2070000000D-01      0.1000000000D+01
 D   1 1.0
    0.2550000000D+00      0.1000000000D+01


[MO]
 Ene=         -4.73235000
 Spin= Alpha
 Occup=        2.00000000
    1        0.5962802000
    2        0.4464431200
    3        0.0000000000
    4        0.0000000000
    5       -0.0000000000
    6       -0.0048892600
    7        0.0000000000
    8       -0.0000000000
    9        0.0000000000
   10        0.0014251800
   11        0.0000000000
   12        0.0000000000
   13        0.0000000000
   14       -0.0004289200
   15        0.0000000000
   16       -0.0000000000
   17       -0.0000000000
   18        0.0006709100
   19        0.0006709100
   20        0.0006709100
   21       -0.0000000000
   22       -0.0000000000
   23       -0.0000000000
 Ene=         -0.30925800
 Spin= Alpha
 Occup=        2.00000000
    1        0.1095860000
    2        0.1856938200
    3       -0.0000000000
    4        0.0000000000
    5        0.0000000000
    6       -0.5839996200
    7       -0.0000000000
    8        0.0000000000
    9       -0.0000000000
   10       -0.5001285100
   11       -0.0000000000
   12        0.0000000000
   13        0.0000000000
   14       -0.0223473000
   15       -0.0000000000
   16        0.0000000000
   17       -0.0000000000
   18        0.0017724700
   19        0.0017724700
   20        0.0017724700
   21       -0.0000000000
   22       -0.0000000000
   23       -0.0000000000
 Ene=          0.02956570
 Spin= Alpha
 Occup=        0.00000000
    1        0.0000000000
    2        0.0000000000
    3       -0.0005402600
    4        0.0012893800
    5        0.0759602400
    6        0.0000000000
    7       -0.0014179900
    8        0.0033841500
    9        0.1993676500
   10       -0.0000000000
   11       -0.0000142500
   12        0.0000340000
   13        0.0020029800
   14        0.0000000000
   15       -0.0063850700
   16        0.0152384500
   17        0.8977312500
   18        0.0000000000
   19       -0.0000000000
   20        0.0000000000
   21        0.0000000000
   22       -0.0000000000
   23        0.0000000000
 Ene=          0.02956570
 Spin= Alpha
 Occup=        0.00000000
    1        0.0000000000
    2       -0.0000000000
    3        0.0691193700
    4       -0.0315177900
    5        0.0010266000
    6       -0.0000000000
    7        0.1814128900
    8       -0.0827225900
    9        0.0026944600
   10        0.0000000000
   11        0.0018225900
   12       -0.0008310900
   13        0.0000270700
   14       -0.0000000000
   15        0.8168828800
   16       -0.3724910000
   17        0.0121328500
   18       -0.0000000000
   19        0.0000000000
   20        0.0000000000
   21       -0.0000000000
   22        0.0000000000
   23       -0.0000000000
 Ene=          0.02956570
 Spin= Alpha
 Occup=        0.00000000
    1        0.0000000000
    2       -0.0000000000
    3       -0.0315298800
    4       -0.0691149700
    5        0.0009489300
    6       -0.0000000000
    7       -0.0827543100
    8       -0.1814013300
    9        0.0024905900
   10        0.0000000000
   11       -0.0008314000
   12       -0.0018224800
   13        0.0000250200
   14       -0.0000000000
   15       -0.3726338400
   16       -0.8168308500
   17        0.0112148700
   18       -0.0000000000
   19        0.0000000000
   20        0.0000000000
   21       -0.0000000000
   22        0.0000000000
   23        0.0000000000
 Ene=          0.05109620
 Spin= Alpha
 Occup=        0.00000000
    1        0.0307078000
    2        0.0667706800
    3        0.0000000000
    4        0.0000000000
    5       -0.0000000000
    6       -0.0123773600
    7        0.0000000000
    8       -0.0000000000
    9        0.0000000000
   10       -1.4855206400
   11       -0.0000000000
   12        0.0000000000
   13       -0.0000000000
   14        1.8493686000
   15        0.0000000000
   16       -0.0000000000
   17       -0.0000000000
   18        0.0491326700
   19        0.0491326700
   20        0.0491326700
   21       -0.0000000000
   22        0.0000000000
   23       -0.0000000000
 Ene=          0.09802860
 Spin= Alpha
 Occup=        0.00000000
    1       -0.0000000000
    2       -0.0000000000
    3        0.0266344800
    4        0.1714987900
    5        0.0074842200
    6        0.0000000000
    7        0.0140592900
    8        0.0905274100
    9        0.0039506200
   10       -0.0000000000
   11        0.1907839300
   12        1.2284532200
   13        0.0536097900
   14        0.0000000000
   15       -0.1782175300
   16       -1.1475384500
   17       -0.0500786700
   18        0.0000000000
   19       -0.0000000000
   20       -0.0000000000
   21        0.0000000000
   22        0.0000000000
   23        0.0000000000
 Ene=          0.09802860
 Spin= Alpha
 Occup=        0.00000000
    1       -0.0000000000
    2       -0.0000000000
    3       -0.1708212500
    4        0.0272275100
    5       -0.0160002000
    6        0.0000000000
    7       -0.0901697600
    8        0.0143723200
    9       -0.0084458700
   10        0.0000000000
   11       -1.2236000000
   12        0.1950318000
   13       -0.1146101300
   14       -0.0000000000
   15        1.1430048900
   16       -0.1821856000
   17        0.1070610800
   18        0.0000000000
   19       -0.0000000000
   20       -0.0000000000
   21       -0.0000000000
   22        0.0000000000
   23        0.0000000000
 Ene=          0.09802860
 Spin= Alpha
 Occup=        0.00000000
    1       -0.0000000000
    2       -0.0000000000
    3        0.0169690300
    4        0.0049063200
    5       -0.1728155700
    6        0.0000000000
    7        0.0089572800
    8        0.0025898500
    9       -0.0912224900
   10        0.0000000000
   11        0.1215498900
   12        0.0351442100
   13       -1.2378854300
   14       -0.0000000000
   15       -0.1135437400
   16       -0.0328293600
   17        1.1563493900
   18       -0.0000000000
   19        0.0000000000
   20       -0.0000000000
   21        0.0000000000
   22       -0.0000000000
   23        0.0000000000
 Ene=          0.32120500
 Spin= Alpha
 Occup=        0.00000000
    1       -0.1008201700
    2       -0.1206836400
    3       -0.0000000000
    4        0.0000000000
    5        0.0000000000
    6        1.7831282900
    7       -0.0000000000
    8        0.0000000000
    9        0.0000000000
   10       -3.2683135200
   11        0.0000000000
   12       -0.0000000000
   13       -0.0000000000
   14        1.3222167900
   15       -0.0000000000
   16        0.0000000000
   17        0.0000000000
   18        0.2606109800
   19        0.2606109800
   20        0.2606109800
   21        0.0000000000
   22        0.0000000000
   23       -0.0000000000
 Ene=          0.34580500
 Spin= Alpha
 Occup=        0.00000000
    1        0.0000000000
    2        0.0000000000
    3       -0.0015778400
    4        0.1838138400
    5        0.0559115100
    6       -0.0000000000
    7       -0.0109077000
    8        1.2707202000
    9        0.3865208500
   10        0.0000000000
   11        0.0148218000
   12       -1.7267025200
   13       -0.5252191000
   14       -0.0000000000
   15       -0.0061628600
   16        0.7179577100
   17        0.2183845200
   18        0.0000000000
   19       -0.0000000000
   20       -0.0000000000
   21        0.0000000000
   22       -0.0000000000
   23       -0.0000000000
 Ene=          0.34580500
 Spin= Alpha
 Occup=        0.00000000
    1       -0.0000000000
    2       -0.0000000000
    3       -0.0124054800
    4        0.0556992500
    5       -0.1834661000
    6        0.0000000000
    7       -0.0857601300
    8        0.3850534800
    9       -1.2683162800
   10       -0.0000000000
   11        0.1165341000
   12       -0.5232251900
   13        1.7234359800
   14        0.0000000000
   15       -0.0484545300
   16        0.2175554600
   17       -0.7165994900
   18        0.0000000000
   19        0.0000000000
   20        0.0000000000
   21        0.0000000000
   22        0.0000000000
   23       -0.0000000000
 Ene=          0.34580500
 Spin= Alpha
 Occup=        0.00000000
    1        0.0000000000
    2        0.0000000000
    3       -0.1917282600
    4       -0.0051166400
    5        0.0114107700
    6       -0.0000000000
    7       -1.3254332900
    8       -0.0353717400
    9        0.0788835700
   10        0.0000000000
   11        1.8010487200
   12        0.0480644500
   13       -0.1071899700
   14       -0.0000000000
   15       -0.7488706300
   16       -0.0199850500
   17        0.0445692700
   18       -0.0000000000
   19       -0.0000000000
   20       -0.0000000000
   21       -0.0000000000
   22       -0.0000000000
   23        0.0000000000
 Ene=          0.69285100
 Spin= Alpha
 Occup=        0.00000000
    1       -0.0000000000
    2       -0.0000000000
    3        0.0000000000
    4       -0.0000000000
    5       -0.0000000000
    6        0.0000000000
    7        0.0000000000
    8        0.0000000000
    9       -0.0000000000
   10       -0.0000000000
   11       -0.0000000000
   12       -0.0000000000
   13        0.0000000000
   14        0.0000000000
   15        0.0000000000
   16        0.0000000000
   17       -0.0000000000
   18       -0.2222034900
   19        0.1721468000
   20        0.0500566900
   21       -0.7283932700
   22        0.0833233100
   23        0.6388719800
 Ene=          0.69285100
 Spin= Alpha
 Occup=        0.00000000
    1       -0.0000000000
    2       -0.0000000000
    3       -0.0000000000
    4       -0.0000000000
    5       -0.0000000000
    6        0.0000000000
    7        0.0000000000
    8        0.0000000000
    9        0.0000000000
   10       -0.0000000000
   11       -0.0000000000
   12       -0.0000000000
   13        0.0000000000
   14        0.0000000000
   15        0.0000000000
   16        0.0000000000
   17       -0.0000000000
   18        0.4746739100
   19        0.5202369800
   20       -0.9949108900
   21        0.0202427900
   22        0.0396246700
   23        0.0864895100
 Ene=          0.69285100
 Spin= Alpha
 Occup=        0.00000000
    1       -0.0000000000
    2       -0.0000000000
    3       -0.0000000000
    4       -0.0000000000
    5       -0.0000000000
    6        0.0000000000
    7        0.0000000000
    8        0.0000000000
    9       -0.0000000000
   10       -0.0000000000
   11       -0.0000000000
   12       -0.0000000000
   13        0.0000000000
   14        0.0000000000
   15        0.0000000000
   16        0.0000000000
   17       -0.0000000000
   18       -0.1055057400
   19        0.0237544100
   20        0.0817513300
   21        0.6743950100
   22        0.0731526700
   23        0.7263521100
 Ene=          0.69285100
 Spin= Alpha
 Occup=        0.00000000
    1        0.0000000000
    2        0.0000000000
    3        0.0000000000
    4       -0.0000000000
    5       -0.0000000000
    6       -0.0000000000
    7        0.0000000000
    8        0.0000000000
    9        0.0000000000
   10       -0.0000000000
   11       -0.0000000000
   12       -0.0000000000
   13       -0.0000000000
   14        0.0000000000
   15        0.0000000000
   16        0.0000000000
   17        0.0000000000
   18        0.8082615600
   19       -0.8078466400
   20       -0.0004149200
   21       -0.1101111000
   22        0.2983553900
   23        0.1680997300
 Ene=          0.69285100
 Spin= Alpha
 Occup=        0.00000000
    1       -0.0000000000
    2        0.0000000000
    3       -0.0000000000
    4       -0.0000000000
    5        0.0000000000
    6        0.0000000000
    7        0.0000000000
    8        0.0000000000
    9       -0.0000000000
   10       -0.0000000000
   11       -0.0000000000
   12       -0.0000000000
   13        0.0000000000
   14        0.0000000000
   15        0.0000000000
   16        0.0000000000
   17       -0.0000000000
   18        0.2467631900
   19       -0.2157278200
   20       -0.0310353800
   21       -0.0458299300
   22       -0.9471641100
   23        0.1688705300
 Ene=          1.19879000
 Spin= Alpha
 Occup=        0.00000000
    1       -0.0000000000
    2       -0.0000000000
    3        0.0377615000
    4        0.6038326500
    5        1.2768036600
    6        0.0000000000
    7       -0.0460872200
    8       -0.7369666000
    9       -1.5583152900
   10       -0.0000000000
   11        0.0283849000
   12        0.4538943500
   13        0.9597592400
   14        0.0000000000
   15       -0.0098516900
   16       -0.1575353700
   17       -0.3331084200
   18        0.0000000000
   19       -0.0000000000
   20        0.0000000000
   21       -0.0000000000
   22        0.0000000000
   23        0.0000000000
 Ene=          1.19879000
 Spin= Alpha
 Occup=        0.00000000
    1        0.0000000000
    2       -0.0000000000
    3       -0.0406109000
    4        1.2771960100
    5       -0.6028171400
    6       -0.0000000000
    7        0.0495648500
    8       -1.5587941400
    9        0.7357271800
   10        0.0000000000
   11       -0.0305267600
   12        0.9600541600
   13       -0.4531310000
   14       -0.0000000000
   15        0.0105950800
   16       -0.3332107800
   17        0.1572704300
   18        0.0000000000
   19       -0.0000000000
   20       -0.0000000000
   21       -0.0000000000
   22       -0.0000000000
   23        0.0000000000
 Ene=          1.19879000
 Spin= Alpha
 Occup=        0.00000000
    1       -0.0000000000
    2        0.0000000000
    3        1.4118046000
    4        0.0205881500
    5       -0.0514908100
    6       -0.0000000000
    7       -1.7230814400
    8       -0.0251274600
    9        0.0628435900
   10       -0.0000000000
   11        1.0612379500
   12        0.0154758900
   13       -0.0387050800
   14        0.0000000000
   15       -0.3683291400
   16       -0.0053712900
   17        0.0134335600
   18        0.0000000000
   19       -0.0000000000
   20        0.0000000000
   21        0.0000000000
   22       -0.0000000000
   23       -0.0000000000
 Ene=          1.41474000
 Spin= Alpha
 Occup=        0.00000000
    1        0.1662730500
    2        0.7329297200
    3       -0.0000000000
    4        0.0000000000
    5       -0.0000000000
    6       -2.9007812900
    7        0.0000000000
    8        0.0000000000
    9        0.0000000000
   10       -1.4063145600
   11       -0.0000000000
   12        0.0000000000
   13       -0.0000000000
   14        0.4975681300
   15       -0.0000000000
   16        0.0000000000
   17        0.0000000000
   18        1.6779525900
   19        1.6779525900
   20        1.6779525900
   21        0.0000000000
   22       -0.0000000000
   23        0.0000000000
 Ene=         10.06660000
 Spin= Alpha
 Occup=        0.00000000
    1       -1.9197775700
    2        2.5708991400
    3        0.0000000000
    4       -0.0000000000
    5       -0.0000000000
    6       -2.0284875200
    7        0.0000000000
    8       -0.0000000000
    9        0.0000000000
   10       -0.3771729500
   11        0.0000000000
   12       -0.0000000000
   13       -0.0000000000
   14        0.1489960700
   15        0.0000000000
   16       -0.0000000000
   17        0.0000000000
   18        0.8743518600
   19        0.8743518600
   20        0.8743518600
   21       -0.0000000000
   22        0.0000000000
   23        0.0000000000

