 Molden2AIM, Version 3.1.0 (02/25/2015)           Time: Tue Oct 29 15:53:58 2024
GAUSSIAN             23 MOL ORBITALS     36 PRIMITIVES        1 NUCLEI
  Be   1    (CENTRE  1)   0.00000000  0.00000000  0.00000000  CHARGE =  4.0
CENTRE ASSIGNMENTS    1  1  1  1  1  1  1  1  1  1  1  1  1  1  1  1  1  1  1  1
CENTRE ASSIGNMENTS    1  1  1  1  1  1  1  1  1  1  1  1  1  1  1  1
TYPE ASSIGNMENTS      1  1  1  1  1  1  1  1  1  2  2  2  3  3  3  4  4  4  1  2
TYPE ASSIGNMENTS      3  4  1  2  3  4  1  2  3  4  5  6  7  8  9 10
EXPONENTS  0.1682800D+04 0.2517150D+03 0.5741160D+02 0.1651710D+02 0.4853640D+01
EXPONENTS  0.6268630D+00 0.8309380D+01 0.1740750D+01 0.4858160D+00 0.8309380D+01
EXPONENTS  0.1740750D+01 0.4858160D+00 0.8309380D+01 0.1740750D+01 0.4858160D+00
EXPONENTS  0.8309380D+01 0.1740750D+01 0.4858160D+00 0.1636130D+00 0.1636130D+00
EXPONENTS  0.1636130D+00 0.1636130D+00 0.5672850D-01 0.5672850D-01 0.5672850D-01
EXPONENTS  0.5672850D-01 0.2070000D-01 0.2070000D-01 0.2070000D-01 0.2070000D-01
EXPONENTS  0.2550000D+00 0.2550000D+00 0.2550000D+00 0.2550000D+00 0.2550000D+00
EXPONENTS  0.2550000D+00
MO    1     MO 0.0        OCC NO =    2.0000000  ORB. ENERGY =   -4.732350
  0.25521829D+00  0.47250026D+00  0.76520818D+00  0.98130917D+00  0.89021338D+00
  0.43252251D-01  0.16914790D+00  0.44714604D+00 -0.55021664D-03  0.00000000D+00
  0.00000000D+00  0.00000000D+00  0.00000000D+00  0.00000000D+00  0.00000000D+00
 -0.00000000D+00 -0.00000000D+00 -0.00000000D+00 -0.89643041D-03  0.00000000D+00
 -0.00000000D+00  0.00000000D+00  0.11806761D-03  0.00000000D+00  0.00000000D+00
  0.00000000D+00 -0.16682616D-04  0.00000000D+00 -0.00000000D+00 -0.00000000D+00
  0.10104598D-03  0.10104598D-03  0.10104598D-03 -0.00000000D+00 -0.00000000D+00
 -0.00000000D+00
MO    2     MO 0.0        OCC NO =    2.0000000  ORB. ENERGY =   -0.309258
  0.46904712D-01  0.86837386D-01  0.14063205D+00  0.18034767D+00  0.16360584D+00
  0.79490165D-02  0.70355481D-01  0.18598619D+00 -0.22885744D-03 -0.00000000D+00
 -0.00000000D+00 -0.00000000D+00  0.00000000D+00  0.00000000D+00  0.00000000D+00
  0.00000000D+00  0.00000000D+00  0.00000000D+00 -0.10707449D+00 -0.00000000D+00
  0.00000000D+00 -0.00000000D+00 -0.41432647D-01 -0.00000000D+00  0.00000000D+00
  0.00000000D+00 -0.86918638D-03 -0.00000000D+00  0.00000000D+00 -0.00000000D+00
  0.26695230D-03  0.26695230D-03  0.26695230D-03 -0.00000000D+00 -0.00000000D+00
 -0.00000000D+00
MO    3     MO 0.0        OCC NO =    0.0000000  ORB. ENERGY =    0.029566
  0.00000000D+00  0.00000000D+00  0.00000000D+00  0.00000000D+00  0.00000000D+00
  0.00000000D+00  0.00000000D+00  0.00000000D+00 -0.00000000D+00 -0.39257674D-03
 -0.33407126D-03 -0.26294308D-03  0.93692037D-03  0.79729168D-03  0.62753776D-03
  0.55196060D-01  0.46970224D-01  0.36969644D-01  0.00000000D+00 -0.21032239D-03
  0.50195173D-03  0.29571070D-01 -0.00000000D+00 -0.56234984D-06  0.13417470D-05
  0.79043894D-04  0.00000000D+00 -0.71460933D-04  0.17054689D-03  0.10047300D-01
  0.00000000D+00 -0.00000000D+00  0.00000000D+00  0.00000000D+00 -0.00000000D+00
  0.00000000D+00
MO    4     MO 0.0        OCC NO =    0.0000000  ORB. ENERGY =    0.029566
  0.00000000D+00  0.00000000D+00  0.00000000D+00  0.00000000D+00  0.00000000D+00
  0.00000000D+00 -0.00000000D+00 -0.00000000D+00  0.00000000D+00  0.50225182D-01
  0.42740153D-01  0.33640211D-01 -0.22902216D-01 -0.19489112D-01 -0.15339623D-01
  0.74597283D-03  0.63480094D-03  0.49964345D-03 -0.00000000D+00  0.26907942D-01
 -0.12269771D-01  0.39965393D-03  0.00000000D+00  0.71925137D-04 -0.32797427D-04
  0.10682674D-05 -0.00000000D+00  0.91424546D-02 -0.41688743D-02  0.13578939D-03
 -0.00000000D+00  0.00000000D+00  0.00000000D+00 -0.00000000D+00  0.00000000D+00
 -0.00000000D+00
MO    5     MO 0.0        OCC NO =    0.0000000  ORB. ENERGY =    0.029566
  0.00000000D+00  0.00000000D+00  0.00000000D+00  0.00000000D+00  0.00000000D+00
  0.00000000D+00 -0.00000000D+00 -0.00000000D+00  0.00000000D+00 -0.22911001D-01
 -0.19496588D-01 -0.15345507D-01 -0.50221985D-01 -0.42737432D-01 -0.33638069D-01
  0.68953438D-03  0.58677348D-03  0.46184167D-03 -0.00000000D+00 -0.12274476D-01
 -0.26906228D-01  0.36941505D-03  0.00000000D+00 -0.32809660D-04 -0.71920796D-04
  0.98736793D-06 -0.00000000D+00 -0.41704730D-02 -0.91418723D-02  0.12551547D-03
 -0.00000000D+00  0.00000000D+00  0.00000000D+00 -0.00000000D+00  0.00000000D+00
  0.00000000D+00
MO    6     MO 0.0        OCC NO =    0.0000000  ORB. ENERGY =    0.051096
  0.13143472D-01  0.24333264D-01  0.39407413D-01  0.50536385D-01  0.45845048D-01
  0.22274452D-02  0.25298005D-01  0.66875809D-01 -0.82291198D-04  0.00000000D+00
  0.00000000D+00  0.00000000D+00  0.00000000D+00  0.00000000D+00  0.00000000D+00
 -0.00000000D+00 -0.00000000D+00 -0.00000000D+00 -0.22693499D-02  0.00000000D+00
 -0.00000000D+00  0.00000000D+00 -0.12306647D+00 -0.00000000D+00  0.00000000D+00
 -0.00000000D+00  0.71930210D-01  0.00000000D+00 -0.00000000D+00 -0.00000000D+00
  0.73998878D-02  0.73998878D-02  0.73998878D-02 -0.00000000D+00  0.00000000D+00
 -0.00000000D+00
MO    7     MO 0.0        OCC NO =    0.0000000  ORB. ENERGY =    0.098029
 -0.00000000D+00 -0.00000000D+00 -0.00000000D+00 -0.00000000D+00 -0.00000000D+00
 -0.00000000D+00 -0.00000000D+00 -0.00000000D+00  0.00000000D+00  0.19353788D-01
  0.16469504D-01  0.12962929D-01  0.12461858D+00  0.10604675D+00  0.83467998D-01
  0.54383643D-02  0.46278881D-02  0.36425497D-02  0.00000000D+00  0.20853345D-02
  0.13427416D-01  0.58597300D-03 -0.00000000D+00  0.75289342D-02  0.48478630D-01
  0.21156110D-02  0.00000000D+00 -0.19945891D-02 -0.12843112D-01 -0.56047443D-03
  0.00000000D+00 -0.00000000D+00 -0.00000000D+00  0.00000000D+00  0.00000000D+00
  0.00000000D+00
MO    8     MO 0.0        OCC NO =    0.0000000  ORB. ENERGY =    0.098029
 -0.00000000D+00 -0.00000000D+00 -0.00000000D+00 -0.00000000D+00 -0.00000000D+00
 -0.00000000D+00 -0.00000000D+00 -0.00000000D+00  0.00000000D+00 -0.12412625D+00
 -0.10562779D+00 -0.83138241D-01  0.19784709D-01  0.16836206D-01  0.13251556D-01
 -0.11626451D-01 -0.98937678D-02 -0.77872541D-02  0.00000000D+00 -0.13374368D-01
  0.21317645D-02 -0.12527279D-02  0.00000000D+00 -0.48287106D-01  0.76965686D-02
 -0.45228764D-02 -0.00000000D+00  0.12792373D-01 -0.20389993D-02  0.11982147D-02
  0.00000000D+00 -0.00000000D+00 -0.00000000D+00 -0.00000000D+00  0.00000000D+00
  0.00000000D+00
MO    9     MO 0.0        OCC NO =    0.0000000  ORB. ENERGY =    0.098029
 -0.00000000D+00 -0.00000000D+00 -0.00000000D+00 -0.00000000D+00 -0.00000000D+00
 -0.00000000D+00 -0.00000000D+00 -0.00000000D+00  0.00000000D+00  0.12330445D-01
  0.10492846D-01  0.82587811D-02  0.35651485D-02  0.30338365D-02  0.23878927D-02
 -0.12557541D+00 -0.10686098D+00 -0.84108871D-01  0.00000000D+00  0.13285824D-02
  0.38413772D-03 -0.13530513D-01  0.00000000D+00  0.47967412D-02  0.13869011D-02
 -0.48850854D-01 -0.00000000D+00 -0.12707678D-02 -0.36742224D-03  0.12941723D-01
 -0.00000000D+00  0.00000000D+00 -0.00000000D+00  0.00000000D+00 -0.00000000D+00
  0.00000000D+00
MO   10     MO 0.0        OCC NO =    0.0000000  ORB. ENERGY =    0.321205
 -0.43152785D-01 -0.79891227D-01 -0.12938283D+00 -0.16592159D+00 -0.15051894D+00
 -0.73131714D-02 -0.45724491D-01 -0.12087365D+00  0.14873596D-03 -0.00000000D+00
 -0.00000000D+00 -0.00000000D+00  0.00000000D+00  0.00000000D+00  0.00000000D+00
  0.00000000D+00  0.00000000D+00  0.00000000D+00  0.32693095D+00 -0.00000000D+00
  0.00000000D+00  0.00000000D+00 -0.27076017D+00  0.00000000D+00 -0.00000000D+00
 -0.00000000D+00  0.51426920D-01 -0.00000000D+00  0.00000000D+00  0.00000000D+00
  0.39250707D-01  0.39250707D-01  0.39250707D-01  0.00000000D+00  0.00000000D+00
 -0.00000000D+00
MO   11     MO 0.0        OCC NO =    0.0000000  ORB. ENERGY =    0.345805
  0.00000000D+00  0.00000000D+00  0.00000000D+00  0.00000000D+00  0.00000000D+00
  0.00000000D+00  0.00000000D+00  0.00000000D+00 -0.00000000D+00 -0.11465281D-02
 -0.97566171D-03 -0.76793047D-03  0.13356724D+00  0.11366179D+00  0.89461699D-01
  0.40627769D-01  0.34573036D-01  0.27211981D-01 -0.00000000D+00 -0.16178771D-02
  0.18847870D+00  0.57330440D-01  0.00000000D+00  0.58491487D-03 -0.68141115D-01
 -0.20726798D-01 -0.00000000D+00 -0.68973986D-04  0.80352961D-02  0.24441332D-02
  0.00000000D+00 -0.00000000D+00 -0.00000000D+00  0.00000000D+00 -0.00000000D+00
 -0.00000000D+00
MO   12     MO 0.0        OCC NO =    0.0000000  ORB. ENERGY =    0.345805
 -0.00000000D+00 -0.00000000D+00 -0.00000000D+00 -0.00000000D+00 -0.00000000D+00
 -0.00000000D+00 -0.00000000D+00 -0.00000000D+00  0.00000000D+00 -0.90143688D-02
 -0.76709627D-02 -0.60377136D-02  0.40473531D-01  0.34441785D-01  0.27108675D-01
 -0.13331456D+00 -0.11344677D+00 -0.89292455D-01  0.00000000D+00 -0.12720312D-01
  0.57112793D-01 -0.18812214D+00 -0.00000000D+00  0.45988023D-02 -0.20648112D-01
  0.68012207D-01  0.00000000D+00 -0.54229725D-03  0.24348545D-02 -0.80200950D-02
  0.00000000D+00  0.00000000D+00  0.00000000D+00  0.00000000D+00  0.00000000D+00
 -0.00000000D+00
MO   13     MO 0.0        OCC NO =    0.0000000  ORB. ENERGY =    0.345805
  0.00000000D+00  0.00000000D+00  0.00000000D+00  0.00000000D+00  0.00000000D+00
  0.00000000D+00  0.00000000D+00  0.00000000D+00 -0.00000000D+00 -0.13931821D+00
 -0.11855570D+00 -0.93313626D-01 -0.37179763D-02 -0.31638884D-02 -0.24902549D-02
  0.82915687D-02  0.70558811D-02  0.55535909D-02 -0.00000000D+00 -0.19659398D+00
 -0.52464891D-02  0.11700351D-01  0.00000000D+00  0.71075050D-01  0.18967744D-02
 -0.42300535D-02 -0.00000000D+00 -0.83812697D-02 -0.22367027D-03  0.49881389D-03
 -0.00000000D+00 -0.00000000D+00 -0.00000000D+00 -0.00000000D+00 -0.00000000D+00
  0.00000000D+00
MO   14     MO 0.0        OCC NO =    0.0000000  ORB. ENERGY =    0.692851
 -0.00000000D+00 -0.00000000D+00 -0.00000000D+00 -0.00000000D+00 -0.00000000D+00
 -0.00000000D+00 -0.00000000D+00 -0.00000000D+00  0.00000000D+00  0.00000000D+00
  0.00000000D+00  0.00000000D+00 -0.00000000D+00 -0.00000000D+00 -0.00000000D+00
 -0.00000000D+00 -0.00000000D+00 -0.00000000D+00  0.00000000D+00  0.00000000D+00
  0.00000000D+00 -0.00000000D+00 -0.00000000D+00 -0.00000000D+00 -0.00000000D+00
  0.00000000D+00  0.00000000D+00  0.00000000D+00  0.00000000D+00 -0.00000000D+00
 -0.33466142D-01  0.25927087D-01  0.75390548D-02 -0.19001213D+00  0.21736115D-01
  0.16665918D+00
MO   15     MO 0.0        OCC NO =    0.0000000  ORB. ENERGY =    0.692851
 -0.00000000D+00 -0.00000000D+00 -0.00000000D+00 -0.00000000D+00 -0.00000000D+00
 -0.00000000D+00 -0.00000000D+00 -0.00000000D+00  0.00000000D+00 -0.00000000D+00
 -0.00000000D+00 -0.00000000D+00 -0.00000000D+00 -0.00000000D+00 -0.00000000D+00
 -0.00000000D+00 -0.00000000D+00 -0.00000000D+00  0.00000000D+00  0.00000000D+00
  0.00000000D+00  0.00000000D+00 -0.00000000D+00 -0.00000000D+00 -0.00000000D+00
  0.00000000D+00  0.00000000D+00  0.00000000D+00  0.00000000D+00 -0.00000000D+00
  0.71490796D-01  0.78353065D-01 -0.14984386D+00  0.52806304D-02  0.10336680D-01
  0.22562064D-01
MO   16     MO 0.0        OCC NO =    0.0000000  ORB. ENERGY =    0.692851
 -0.00000000D+00 -0.00000000D+00 -0.00000000D+00 -0.00000000D+00 -0.00000000D+00
 -0.00000000D+00 -0.00000000D+00 -0.00000000D+00  0.00000000D+00 -0.00000000D+00
 -0.00000000D+00 -0.00000000D+00 -0.00000000D+00 -0.00000000D+00 -0.00000000D+00
 -0.00000000D+00 -0.00000000D+00 -0.00000000D+00  0.00000000D+00  0.00000000D+00
  0.00000000D+00 -0.00000000D+00 -0.00000000D+00 -0.00000000D+00 -0.00000000D+00
  0.00000000D+00  0.00000000D+00  0.00000000D+00  0.00000000D+00 -0.00000000D+00
 -0.15890255D-01  0.35776596D-02  0.12312595D-01  0.17592589D+00  0.19082953D-01
  0.18947966D+00
MO   17     MO 0.0        OCC NO =    0.0000000  ORB. ENERGY =    0.692851
  0.00000000D+00  0.00000000D+00  0.00000000D+00  0.00000000D+00  0.00000000D+00
  0.00000000D+00  0.00000000D+00  0.00000000D+00 -0.00000000D+00  0.00000000D+00
  0.00000000D+00  0.00000000D+00 -0.00000000D+00 -0.00000000D+00 -0.00000000D+00
 -0.00000000D+00 -0.00000000D+00 -0.00000000D+00 -0.00000000D+00  0.00000000D+00
  0.00000000D+00  0.00000000D+00 -0.00000000D+00 -0.00000000D+00 -0.00000000D+00
 -0.00000000D+00  0.00000000D+00  0.00000000D+00  0.00000000D+00  0.00000000D+00
  0.12173254D+00 -0.12167005D+00 -0.62491240D-04 -0.28724105D-01  0.77830404D-01
  0.43851294D-01
MO   18     MO 0.0        OCC NO =    0.0000000  ORB. ENERGY =    0.692851
 -0.00000000D+00 -0.00000000D+00 -0.00000000D+00 -0.00000000D+00 -0.00000000D+00
 -0.00000000D+00  0.00000000D+00  0.00000000D+00 -0.00000000D+00 -0.00000000D+00
 -0.00000000D+00 -0.00000000D+00 -0.00000000D+00 -0.00000000D+00 -0.00000000D+00
  0.00000000D+00  0.00000000D+00  0.00000000D+00  0.00000000D+00  0.00000000D+00
  0.00000000D+00 -0.00000000D+00 -0.00000000D+00 -0.00000000D+00 -0.00000000D+00
  0.00000000D+00  0.00000000D+00  0.00000000D+00  0.00000000D+00 -0.00000000D+00
  0.37165086D-01 -0.32490839D-01 -0.46742490D-02 -0.11955413D-01 -0.24708173D+00
  0.44052369D-01
MO   19     MO 0.0        OCC NO =    0.0000000  ORB. ENERGY =    1.198790
 -0.00000000D+00 -0.00000000D+00 -0.00000000D+00 -0.00000000D+00 -0.00000000D+00
 -0.00000000D+00 -0.00000000D+00 -0.00000000D+00  0.00000000D+00  0.27439171D-01
  0.23349928D-01  0.18378420D-01  0.43877143D+00  0.37338158D+00  0.29388372D+00
  0.92778184D+00  0.78951506D+00  0.62141689D+00  0.00000000D+00 -0.68358553D-02
 -0.10931007D+00 -0.23113605D+00 -0.00000000D+00  0.11201575D-02  0.17912099D-01
  0.37875120D-01  0.00000000D+00 -0.11025893D-03 -0.17631169D-02 -0.37281092D-02
  0.00000000D+00 -0.00000000D+00  0.00000000D+00 -0.00000000D+00  0.00000000D+00
  0.00000000D+00
MO   20     MO 0.0        OCC NO =    0.0000000  ORB. ENERGY =    1.198790
  0.00000000D+00  0.00000000D+00  0.00000000D+00  0.00000000D+00  0.00000000D+00
  0.00000000D+00 -0.00000000D+00 -0.00000000D+00  0.00000000D+00 -0.29509671D-01
 -0.25111862D-01 -0.19765215D-01  0.92806694D+00  0.78975767D+00  0.62160785D+00
 -0.43803352D+00 -0.37275364D+00 -0.29338947D+00 -0.00000000D+00  0.73516724D-02
 -0.23120707D+00  0.10912623D+00  0.00000000D+00 -0.12046820D-02  0.37886758D-01
 -0.17881975D-01 -0.00000000D+00  0.11857886D-03 -0.37292548D-02  0.17601517D-02
  0.00000000D+00 -0.00000000D+00 -0.00000000D+00 -0.00000000D+00 -0.00000000D+00
  0.00000000D+00
MO   21     MO 0.0        OCC NO =    0.0000000  ORB. ENERGY =    1.198790
 -0.00000000D+00 -0.00000000D+00 -0.00000000D+00 -0.00000000D+00 -0.00000000D+00
 -0.00000000D+00  0.00000000D+00  0.00000000D+00 -0.00000000D+00  0.10258795D+01
  0.87299326D+00  0.68712148D+00  0.14960258D-01  0.12730739D-01  0.10020197D-01
 -0.37415493D-01 -0.31839484D-01 -0.25060438D-01 -0.00000000D+00 -0.25557487D+00
 -0.37270133D-02  0.93212324D-02 -0.00000000D+00  0.41879789D-01  0.61072732D-03
 -0.15274243D-02  0.00000000D+00 -0.41222953D-02 -0.60114830D-04  0.15034678D-03
  0.00000000D+00 -0.00000000D+00  0.00000000D+00  0.00000000D+00 -0.00000000D+00
 -0.00000000D+00
MO   22     MO 0.0        OCC NO =    0.0000000  ORB. ENERGY =    1.414740
  0.71167754D-01  0.13175695D+00  0.21337871D+00  0.27363858D+00  0.24823647D+00
  0.12060913D-01  0.27769165D+00  0.73408371D+00 -0.90329565D-03 -0.00000000D+00
 -0.00000000D+00 -0.00000000D+00  0.00000000D+00  0.00000000D+00  0.00000000D+00
 -0.00000000D+00 -0.00000000D+00 -0.00000000D+00 -0.53184911D+00  0.00000000D+00
  0.00000000D+00  0.00000000D+00 -0.11650473D+00 -0.00000000D+00  0.00000000D+00
 -0.00000000D+00  0.19352648D-01 -0.00000000D+00  0.00000000D+00  0.00000000D+00
  0.25271700D+00  0.25271700D+00  0.25271700D+00  0.00000000D+00 -0.00000000D+00
  0.00000000D+00
MO   23     MO 0.0        OCC NO =    0.0000000  ORB. ENERGY =   10.066600
 -0.82169816D+00 -0.15212570D+01 -0.24636564D+01 -0.31594129D+01 -0.28661218D+01
 -0.13925450D+00  0.97405958D+00  0.25749470D+01 -0.31684921D-02  0.00000000D+00
  0.00000000D+00  0.00000000D+00 -0.00000000D+00 -0.00000000D+00 -0.00000000D+00
 -0.00000000D+00 -0.00000000D+00 -0.00000000D+00 -0.37191679D+00  0.00000000D+00
 -0.00000000D+00  0.00000000D+00 -0.31246516D-01  0.00000000D+00 -0.00000000D+00
 -0.00000000D+00  0.57951231D-02  0.00000000D+00 -0.00000000D+00  0.00000000D+00
  0.13168643D+00  0.13168643D+00  0.13168643D+00 -0.00000000D+00  0.00000000D+00
  0.00000000D+00
END DATA
 THE  HF ENERGY =    -14.571945868338 THE VIRIAL(-V/T)=   2.00004334


 $MOSPIN $END
 3 3 3 3 3 3 3 3 3 3 3 3 3 3 3 3 3 3 3 3 3 3 3


