[Molden Format]
[Atoms] AU
BE       1       4     0.00000000     0.00000000     0.00000000
[GTO]
  1 0
s  6 1.00
   1.6828000000E+03   2.2857400000E-03
   2.5171500000E+02   1.7593800000E-02
   5.7411600000E+01   8.6331500000E-02
   1.6517100000E+01   2.8183500000E-01
   4.8536400000E+00   6.4059400000E-01
   6.2686300000E-01   1.4446700000E-01
s  3 1.00
   8.3093800000E+00   1.0862100000E-01
   1.7407500000E+00   9.2730100000E-01
   4.8581600000E-01  -2.9716900000E-03
p  3 1.00
   8.3093800000E+00   3.6134400000E-02
   1.7407500000E+00   2.1695800000E-01
   4.8581600000E-01   8.4183900000E-01
s  1 1.00
   1.6361300000E-01   1.0000000000E+00
p  1 1.00
   1.6361300000E-01   1.0000000000E+00
s  1 1.00
   5.6728500000E-02   1.0000000000E+00
p  1 1.00
   5.6728500000E-02   1.0000000000E+00
s  1 1.00
   2.0700000000E-02   1.0000000000E+00
p  1 1.00
   2.0700000000E-02   1.0000000000E+00
d  1 1.00
   2.5500000000E-01   1.0000000000E+00
 
 
[MO]
Ene=    -4.73235E+00
Spin= Alpha
Occup=   2.0000000000
   1       0.59628020
   2       0.44644312
   3       0.00000000
   4       0.00000000
   5      -0.00000000
   6      -0.00488926
   7       0.00000000
   8      -0.00000000
   9       0.00000000
  10       0.00142518
  11       0.00000000
  12       0.00000000
  13       0.00000000
  14      -0.00042892
  15       0.00000000
  16      -0.00000000
  17      -0.00000000
  18       0.00067091
  19       0.00067091
  20       0.00067091
  21      -0.00000000
  22      -0.00000000
  23      -0.00000000
Ene=    -3.09258E-01
Spin= Alpha
Occup=   2.0000000000
   1       0.10958600
   2       0.18569382
   3      -0.00000000
   4       0.00000000
   5       0.00000000
   6      -0.58399962
   7      -0.00000000
   8       0.00000000
   9      -0.00000000
  10      -0.50012851
  11      -0.00000000
  12       0.00000000
  13       0.00000000
  14      -0.02234730
  15      -0.00000000
  16       0.00000000
  17      -0.00000000
  18       0.00177247
  19       0.00177247
  20       0.00177247
  21      -0.00000000
  22      -0.00000000
  23      -0.00000000
Ene=     2.95657E-02
Spin= Alpha
Occup=   0.0000000000
   1       0.00000000
   2       0.00000000
   3      -0.00054026
   4       0.00128938
   5       0.07596024
   6       0.00000000
   7      -0.00141799
   8       0.00338415
   9       0.19936765
  10      -0.00000000
  11      -0.00001425
  12       0.00003400
  13       0.00200298
  14       0.00000000
  15      -0.00638507
  16       0.01523845
  17       0.89773125
  18       0.00000000
  19      -0.00000000
  20       0.00000000
  21       0.00000000
  22      -0.00000000
  23       0.00000000
Ene=     2.95657E-02
Spin= Alpha
Occup=   0.0000000000
   1       0.00000000
   2      -0.00000000
   3       0.06911937
   4      -0.03151779
   5       0.00102660
   6      -0.00000000
   7       0.18141289
   8      -0.08272259
   9       0.00269446
  10       0.00000000
  11       0.00182259
  12      -0.00083109
  13       0.00002707
  14      -0.00000000
  15       0.81688288
  16      -0.37249100
  17       0.01213285
  18      -0.00000000
  19       0.00000000
  20       0.00000000
  21      -0.00000000
  22       0.00000000
  23      -0.00000000
Ene=     2.95657E-02
Spin= Alpha
Occup=   0.0000000000
   1       0.00000000
   2      -0.00000000
   3      -0.03152988
   4      -0.06911497
   5       0.00094893
   6      -0.00000000
   7      -0.08275431
   8      -0.18140133
   9       0.00249059
  10       0.00000000
  11      -0.00083140
  12      -0.00182248
  13       0.00002502
  14      -0.00000000
  15      -0.37263384
  16      -0.81683085
  17       0.01121487
  18      -0.00000000
  19       0.00000000
  20       0.00000000
  21      -0.00000000
  22       0.00000000
  23       0.00000000
Ene=     5.10962E-02
Spin= Alpha
Occup=   0.0000000000
   1       0.03070780
   2       0.06677068
   3       0.00000000
   4       0.00000000
   5      -0.00000000
   6      -0.01237736
   7       0.00000000
   8      -0.00000000
   9       0.00000000
  10      -1.48552064
  11      -0.00000000
  12       0.00000000
  13      -0.00000000
  14       1.84936860
  15       0.00000000
  16      -0.00000000
  17      -0.00000000
  18       0.04913267
  19       0.04913267
  20       0.04913267
  21      -0.00000000
  22       0.00000000
  23      -0.00000000
Ene=     9.80286E-02
Spin= Alpha
Occup=   0.0000000000
   1      -0.00000000
   2      -0.00000000
   3       0.02663448
   4       0.17149879
   5       0.00748422
   6       0.00000000
   7       0.01405929
   8       0.09052741
   9       0.00395062
  10      -0.00000000
  11       0.19078393
  12       1.22845322
  13       0.05360979
  14       0.00000000
  15      -0.17821753
  16      -1.14753845
  17      -0.05007867
  18       0.00000000
  19      -0.00000000
  20      -0.00000000
  21       0.00000000
  22       0.00000000
  23       0.00000000
Ene=     9.80286E-02
Spin= Alpha
Occup=   0.0000000000
   1      -0.00000000
   2      -0.00000000
   3      -0.17082125
   4       0.02722751
   5      -0.01600020
   6       0.00000000
   7      -0.09016976
   8       0.01437232
   9      -0.00844587
  10       0.00000000
  11      -1.22360000
  12       0.19503180
  13      -0.11461013
  14      -0.00000000
  15       1.14300489
  16      -0.18218560
  17       0.10706108
  18       0.00000000
  19      -0.00000000
  20      -0.00000000
  21      -0.00000000
  22       0.00000000
  23       0.00000000
Ene=     9.80286E-02
Spin= Alpha
Occup=   0.0000000000
   1      -0.00000000
   2      -0.00000000
   3       0.01696903
   4       0.00490632
   5      -0.17281557
   6       0.00000000
   7       0.00895728
   8       0.00258985
   9      -0.09122249
  10       0.00000000
  11       0.12154989
  12       0.03514421
  13      -1.23788543
  14      -0.00000000
  15      -0.11354374
  16      -0.03282936
  17       1.15634939
  18      -0.00000000
  19       0.00000000
  20      -0.00000000
  21       0.00000000
  22      -0.00000000
  23       0.00000000
Ene=     3.21205E-01
Spin= Alpha
Occup=   0.0000000000
   1      -0.10082017
   2      -0.12068364
   3      -0.00000000
   4       0.00000000
   5       0.00000000
   6       1.78312829
   7      -0.00000000
   8       0.00000000
   9       0.00000000
  10      -3.26831352
  11       0.00000000
  12      -0.00000000
  13      -0.00000000
  14       1.32221679
  15      -0.00000000
  16       0.00000000
  17       0.00000000
  18       0.26061098
  19       0.26061098
  20       0.26061098
  21       0.00000000
  22       0.00000000
  23      -0.00000000
Ene=     3.45805E-01
Spin= Alpha
Occup=   0.0000000000
   1       0.00000000
   2       0.00000000
   3      -0.00157784
   4       0.18381384
   5       0.05591151
   6      -0.00000000
   7      -0.01090770
   8       1.27072020
   9       0.38652085
  10       0.00000000
  11       0.01482180
  12      -1.72670252
  13      -0.52521910
  14      -0.00000000
  15      -0.00616286
  16       0.71795771
  17       0.21838452
  18       0.00000000
  19      -0.00000000
  20      -0.00000000
  21       0.00000000
  22      -0.00000000
  23      -0.00000000
Ene=     3.45805E-01
Spin= Alpha
Occup=   0.0000000000
   1      -0.00000000
   2      -0.00000000
   3      -0.01240548
   4       0.05569925
   5      -0.18346610
   6       0.00000000
   7      -0.08576013
   8       0.38505348
   9      -1.26831628
  10      -0.00000000
  11       0.11653410
  12      -0.52322519
  13       1.72343598
  14       0.00000000
  15      -0.04845453
  16       0.21755546
  17      -0.71659949
  18       0.00000000
  19       0.00000000
  20       0.00000000
  21       0.00000000
  22       0.00000000
  23      -0.00000000
Ene=     3.45805E-01
Spin= Alpha
Occup=   0.0000000000
   1       0.00000000
   2       0.00000000
   3      -0.19172826
   4      -0.00511664
   5       0.01141077
   6      -0.00000000
   7      -1.32543329
   8      -0.03537174
   9       0.07888357
  10       0.00000000
  11       1.80104872
  12       0.04806445
  13      -0.10718997
  14      -0.00000000
  15      -0.74887063
  16      -0.01998505
  17       0.04456927
  18      -0.00000000
  19      -0.00000000
  20      -0.00000000
  21      -0.00000000
  22      -0.00000000
  23       0.00000000
Ene=     6.92851E-01
Spin= Alpha
Occup=   0.0000000000
   1      -0.00000000
   2      -0.00000000
   3       0.00000000
   4      -0.00000000
   5      -0.00000000
   6       0.00000000
   7       0.00000000
   8       0.00000000
   9      -0.00000000
  10      -0.00000000
  11      -0.00000000
  12      -0.00000000
  13       0.00000000
  14       0.00000000
  15       0.00000000
  16       0.00000000
  17      -0.00000000
  18      -0.22220349
  19       0.17214680
  20       0.05005669
  21      -0.72839327
  22       0.08332331
  23       0.63887198
Ene=     6.92851E-01
Spin= Alpha
Occup=   0.0000000000
   1      -0.00000000
   2      -0.00000000
   3      -0.00000000
   4      -0.00000000
   5      -0.00000000
   6       0.00000000
   7       0.00000000
   8       0.00000000
   9       0.00000000
  10      -0.00000000
  11      -0.00000000
  12      -0.00000000
  13       0.00000000
  14       0.00000000
  15       0.00000000
  16       0.00000000
  17      -0.00000000
  18       0.47467391
  19       0.52023698
  20      -0.99491089
  21       0.02024279
  22       0.03962467
  23       0.08648951
Ene=     6.92851E-01
Spin= Alpha
Occup=   0.0000000000
   1      -0.00000000
   2      -0.00000000
   3      -0.00000000
   4      -0.00000000
   5      -0.00000000
   6       0.00000000
   7       0.00000000
   8       0.00000000
   9      -0.00000000
  10      -0.00000000
  11      -0.00000000
  12      -0.00000000
  13       0.00000000
  14       0.00000000
  15       0.00000000
  16       0.00000000
  17      -0.00000000
  18      -0.10550574
  19       0.02375441
  20       0.08175133
  21       0.67439501
  22       0.07315267
  23       0.72635211
Ene=     6.92851E-01
Spin= Alpha
Occup=   0.0000000000
   1       0.00000000
   2       0.00000000
   3       0.00000000
   4      -0.00000000
   5      -0.00000000
   6      -0.00000000
   7       0.00000000
   8       0.00000000
   9       0.00000000
  10      -0.00000000
  11      -0.00000000
  12      -0.00000000
  13      -0.00000000
  14       0.00000000
  15       0.00000000
  16       0.00000000
  17       0.00000000
  18       0.80826156
  19      -0.80784664
  20      -0.00041492
  21      -0.11011110
  22       0.29835539
  23       0.16809973
Ene=     6.92851E-01
Spin= Alpha
Occup=   0.0000000000
   1      -0.00000000
   2       0.00000000
   3      -0.00000000
   4      -0.00000000
   5       0.00000000
   6       0.00000000
   7       0.00000000
   8       0.00000000
   9      -0.00000000
  10      -0.00000000
  11      -0.00000000
  12      -0.00000000
  13       0.00000000
  14       0.00000000
  15       0.00000000
  16       0.00000000
  17      -0.00000000
  18       0.24676319
  19      -0.21572782
  20      -0.03103538
  21      -0.04582993
  22      -0.94716411
  23       0.16887053
Ene=     1.19879E+00
Spin= Alpha
Occup=   0.0000000000
   1      -0.00000000
   2      -0.00000000
   3       0.03776150
   4       0.60383265
   5       1.27680366
   6       0.00000000
   7      -0.04608722
   8      -0.73696660
   9      -1.55831529
  10      -0.00000000
  11       0.02838490
  12       0.45389435
  13       0.95975924
  14       0.00000000
  15      -0.00985169
  16      -0.15753537
  17      -0.33310842
  18       0.00000000
  19      -0.00000000
  20       0.00000000
  21      -0.00000000
  22       0.00000000
  23       0.00000000
Ene=     1.19879E+00
Spin= Alpha
Occup=   0.0000000000
   1       0.00000000
   2      -0.00000000
   3      -0.04061090
   4       1.27719601
   5      -0.60281714
   6      -0.00000000
   7       0.04956485
   8      -1.55879414
   9       0.73572718
  10       0.00000000
  11      -0.03052676
  12       0.96005416
  13      -0.45313100
  14      -0.00000000
  15       0.01059508
  16      -0.33321078
  17       0.15727043
  18       0.00000000
  19      -0.00000000
  20      -0.00000000
  21      -0.00000000
  22      -0.00000000
  23       0.00000000
Ene=     1.19879E+00
Spin= Alpha
Occup=   0.0000000000
   1      -0.00000000
   2       0.00000000
   3       1.41180460
   4       0.02058815
   5      -0.05149081
   6      -0.00000000
   7      -1.72308144
   8      -0.02512746
   9       0.06284359
  10      -0.00000000
  11       1.06123795
  12       0.01547589
  13      -0.03870508
  14       0.00000000
  15      -0.36832914
  16      -0.00537129
  17       0.01343356
  18       0.00000000
  19      -0.00000000
  20       0.00000000
  21       0.00000000
  22      -0.00000000
  23      -0.00000000
Ene=     1.41474E+00
Spin= Alpha
Occup=   0.0000000000
   1       0.16627305
   2       0.73292972
   3      -0.00000000
   4       0.00000000
   5      -0.00000000
   6      -2.90078129
   7       0.00000000
   8       0.00000000
   9       0.00000000
  10      -1.40631456
  11      -0.00000000
  12       0.00000000
  13      -0.00000000
  14       0.49756813
  15      -0.00000000
  16       0.00000000
  17       0.00000000
  18       1.67795259
  19       1.67795259
  20       1.67795259
  21       0.00000000
  22      -0.00000000
  23       0.00000000
Ene=     1.00666E+01
Spin= Alpha
Occup=   0.0000000000
   1      -1.91977757
   2       2.57089914
   3       0.00000000
   4      -0.00000000
   5      -0.00000000
   6      -2.02848752
   7       0.00000000
   8      -0.00000000
   9       0.00000000
  10      -0.37717295
  11       0.00000000
  12      -0.00000000
  13      -0.00000000
  14       0.14899607
  15       0.00000000
  16      -0.00000000
  17       0.00000000
  18       0.87435186
  19       0.87435186
  20       0.87435186
  21      -0.00000000
  22       0.00000000
  23       0.00000000
