[Molden Format]
[Title]
 Molden2AIM, Version 3.1.0 (02/25/2015)           Time: Tue Oct 29 15:50:36 2024

[Atoms] AU
BE       1       4     0.00000000     0.00000000     0.00000000
BE       2       4     4.63600000     0.00000000     0.00000000
[GTO]
    1 0
 S   6 1.0
    0.1682800000D+04      0.2285740532D-02
    0.2517150000D+03      0.1759380410D-01
    0.5741160000D+02      0.8633152009D-01
    0.1651710000D+02      0.2818350656D+00
    0.4853640000D+01      0.6405941491D+00
    0.6268630000D+00      0.1444670336D+00
 S   3 1.0
    0.8309380000D+01      0.1086210323D+00
    0.1740750000D+01      0.9273012759D+00
    0.4858160000D+00     -0.2971690884D-02
 P   3 1.0
    0.8309380000D+01      0.3613440323D-01
    0.1740750000D+01      0.2169580194D+00
    0.4858160000D+00      0.8418390753D+00
 S   1 1.0
    0.1636130000D+00      0.1000000000D+01
 P   1 1.0
    0.1636130000D+00      0.1000000000D+01
 S   1 1.0
    0.5672850000D-01      0.1000000000D+01
 P   1 1.0
    0.5672850000D-01      0.1000000000D+01
 S   1 1.0
    0.2070000000D-01      0.1000000000D+01
 P   1 1.0
    0.2070000000D-01      0.1000000000D+01
 D   1 1.0
    0.2550000000D+00      0.1000000000D+01

    2 0
 S   6 1.0
    0.1682800000D+04      0.2285740532D-02
    0.2517150000D+03      0.1759380410D-01
    0.5741160000D+02      0.8633152009D-01
    0.1651710000D+02      0.2818350656D+00
    0.4853640000D+01      0.6405941491D+00
    0.6268630000D+00      0.1444670336D+00
 S   3 1.0
    0.8309380000D+01      0.1086210323D+00
    0.1740750000D+01      0.9273012759D+00
    0.4858160000D+00     -0.2971690884D-02
 P   3 1.0
    0.8309380000D+01      0.3613440323D-01
    0.1740750000D+01      0.2169580194D+00
    0.4858160000D+00      0.8418390753D+00
 S   1 1.0
    0.1636130000D+00      0.1000000000D+01
 P   1 1.0
    0.1636130000D+00      0.1000000000D+01
 S   1 1.0
    0.5672850000D-01      0.1000000000D+01
 P   1 1.0
    0.5672850000D-01      0.1000000000D+01
 S   1 1.0
    0.2070000000D-01      0.1000000000D+01
 P   1 1.0
    0.2070000000D-01      0.1000000000D+01
 D   1 1.0
    0.2550000000D+00      0.1000000000D+01


[MO]
 Ene=         -4.73138000
 Spin= Alpha
 Occup=        2.00000000
    1        0.4215662100
    2        0.3155165300
    3        0.0002425700
    4        0.0000000000
    5        0.0000000000
    6       -0.0027735700
    7        0.0000348900
    8       -0.0000000000
    9        0.0000000000
   10        0.0009567200
   11        0.0000271600
   12        0.0000000000
   13       -0.0000000000
   14       -0.0002453500
   15       -0.0000771700
   16       -0.0000000000
   17        0.0000000000
   18        0.0004840500
   19        0.0002851000
   20        0.0002851000
   21        0.0000000000
   22       -0.0000000000
   23       -0.0000000000
   24        0.4215662100
   25        0.3155165300
   26       -0.0002425700
   27       -0.0000000000
   28        0.0000000000
   29       -0.0027735700
   30       -0.0000348900
   31        0.0000000000
   32       -0.0000000000
   33        0.0009567200
   34       -0.0000271600
   35       -0.0000000000
   36        0.0000000000
   37       -0.0002453500
   38        0.0000771700
   39        0.0000000000
   40       -0.0000000000
   41        0.0004840500
   42        0.0002851000
   43        0.0002851000
   44       -0.0000000000
   45       -0.0000000000
   46       -0.0000000000
 Ene=         -4.73135000
 Spin= Alpha
 Occup=        2.00000000
    1        0.4216215800
    2        0.3155953300
    3        0.0002475400
    4        0.0000000000
    5        0.0000000000
    6       -0.0032123900
    7       -0.0004643700
    8        0.0000000000
    9       -0.0000000000
   10        0.0019711600
   11        0.0005640500
   12        0.0000000000
   13        0.0000000000
   14       -0.0029346200
   15       -0.0009198600
   16       -0.0000000000
   17       -0.0000000000
   18        0.0001380400
   19        0.0002806800
   20        0.0002806800
   21       -0.0000000000
   22       -0.0000000000
   23        0.0000000000
   24       -0.4216215800
   25       -0.3155953300
   26        0.0002475400
   27        0.0000000000
   28       -0.0000000000
   29        0.0032123900
   30       -0.0004643700
   31        0.0000000000
   32       -0.0000000000
   33       -0.0019711600
   34        0.0005640500
   35       -0.0000000000
   36       -0.0000000000
   37        0.0029346200
   38       -0.0009198600
   39        0.0000000000
   40       -0.0000000000
   41       -0.0001380400
   42       -0.0002806800
   43       -0.0002806800
   44        0.0000000000
   45       -0.0000000000
   46       -0.0000000000
 Ene=         -0.39568000
 Spin= Alpha
 Occup=        2.00000000
    1       -0.0773402700
    2       -0.1287646200
    3        0.0406856400
    4        0.0000000000
    5       -0.0000000000
    6        0.4011573100
    7        0.0741944700
    8        0.0000000000
    9       -0.0000000000
   10        0.2344568800
   11        0.0053349400
   12       -0.0000000000
   13        0.0000000000
   14       -0.0031565300
   15       -0.0033014600
   16       -0.0000000000
   17       -0.0000000000
   18        0.0174172700
   19       -0.0075363900
   20       -0.0075363900
   21       -0.0000000000
   22       -0.0000000000
   23        0.0000000000
   24       -0.0773402700
   25       -0.1287646200
   26       -0.0406856400
   27        0.0000000000
   28       -0.0000000000
   29        0.4011573100
   30       -0.0741944700
   31       -0.0000000000
   32        0.0000000000
   33        0.2344568800
   34       -0.0053349400
   35        0.0000000000
   36       -0.0000000000
   37       -0.0031565300
   38        0.0033014600
   39       -0.0000000000
   40        0.0000000000
   41        0.0174172700
   42       -0.0075363900
   43       -0.0075363900
   44       -0.0000000000
   45       -0.0000000000
   46        0.0000000000
 Ene=         -0.24295900
 Spin= Alpha
 Occup=        2.00000000
    1       -0.0755360700
    2       -0.1288749800
    3       -0.0412721800
    4        0.0000000000
    5        0.0000000000
    6        0.4012020400
    7       -0.0603395900
    8        0.0000000000
    9        0.0000000000
   10        0.5104499800
   11       -0.0110504400
   12       -0.0000000000
   13       -0.0000000000
   14        0.0666580100
   15       -0.0033342900
   16        0.0000000000
   17        0.0000000000
   18       -0.0078384800
   19        0.0038376600
   20        0.0038376600
   21       -0.0000000000
   22        0.0000000000
   23       -0.0000000000
   24        0.0755360700
   25        0.1288749800
   26       -0.0412721800
   27       -0.0000000000
   28       -0.0000000000
   29       -0.4012020400
   30       -0.0603395900
   31       -0.0000000000
   32        0.0000000000
   33       -0.5104499800
   34       -0.0110504400
   35        0.0000000000
   36        0.0000000000
   37       -0.0666580100
   38       -0.0033342900
   39        0.0000000000
   40        0.0000000000
   41        0.0078384800
   42       -0.0038376600
   43       -0.0038376600
   44        0.0000000000
   45       -0.0000000000
   46       -0.0000000000
 Ene=          0.00783320
 Spin= Alpha
 Occup=        0.00000000
    1        0.0012486500
    2        0.0006630400
    3        0.1092603000
    4       -0.0000000000
    5        0.0000000000
    6       -0.0215643400
    7        0.2095538100
    8       -0.0000000000
    9        0.0000000000
   10        0.0786613000
   11        0.1702893200
   12        0.0000000000
   13        0.0000000000
   14       -0.4667915100
   15        0.3330239700
   16       -0.0000000000
   17        0.0000000000
   18        0.0064555300
   19       -0.0119640100
   20       -0.0119640100
   21        0.0000000000
   22        0.0000000000
   23       -0.0000000000
   24        0.0012486500
   25        0.0006630400
   26       -0.1092603000
   27       -0.0000000000
   28        0.0000000000
   29       -0.0215643400
   30       -0.2095538100
   31        0.0000000000
   32        0.0000000000
   33        0.0786613000
   34       -0.1702893200
   35       -0.0000000000
   36        0.0000000000
   37       -0.4667915100
   38       -0.3330239700
   39        0.0000000000
   40        0.0000000000
   41        0.0064555300
   42       -0.0119640100
   43       -0.0119640100
   44        0.0000000000
   45       -0.0000000000
   46       -0.0000000000
 Ene=          0.01131270
 Spin= Alpha
 Occup=        0.00000000
    1        0.0000000000
    2        0.0000000000
    3       -0.0000000000
    4        0.0335943100
    5        0.0710990400
    6       -0.0000000000
    7       -0.0000000000
    8        0.0702615500
    9        0.1487016200
   10       -0.0000000000
   11       -0.0000000000
   12        0.0504075600
   13        0.1066826200
   14       -0.0000000000
   15       -0.0000000000
   16        0.1447141600
   17        0.3062732000
   18       -0.0000000000
   19        0.0000000000
   20        0.0000000000
   21        0.0062000100
   22        0.0131217200
   23        0.0000000000
   24       -0.0000000000
   25        0.0000000000
   26        0.0000000000
   27        0.0335943100
   28        0.0710990400
   29        0.0000000000
   30        0.0000000000
   31        0.0702615500
   32        0.1487016200
   33       -0.0000000000
   34        0.0000000000
   35        0.0504075600
   36        0.1066826200
   37        0.0000000000
   38       -0.0000000000
   39        0.1447141600
   40        0.3062732000
   41        0.0000000000
   42        0.0000000000
   43        0.0000000000
   44       -0.0062000100
   45       -0.0131217200
   46        0.0000000000
 Ene=          0.01131270
 Spin= Alpha
 Occup=        0.00000000
    1        0.0000000000
    2        0.0000000000
    3       -0.0000000000
    4       -0.0710990400
    5        0.0335943100
    6       -0.0000000000
    7       -0.0000000000
    8       -0.1487016200
    9        0.0702615500
   10        0.0000000000
   11       -0.0000000000
   12       -0.1066826200
   13        0.0504075600
   14       -0.0000000000
   15       -0.0000000000
   16       -0.3062732000
   17        0.1447141600
   18       -0.0000000000
   19        0.0000000000
   20        0.0000000000
   21       -0.0131217200
   22        0.0062000100
   23        0.0000000000
   24       -0.0000000000
   25        0.0000000000
   26        0.0000000000
   27       -0.0710990400
   28        0.0335943100
   29        0.0000000000
   30        0.0000000000
   31       -0.1487016200
   32        0.0702615500
   33       -0.0000000000
   34        0.0000000000
   35       -0.1066826200
   36        0.0504075600
   37        0.0000000000
   38       -0.0000000000
   39       -0.3062732000
   40        0.1447141600
   41        0.0000000000
   42        0.0000000000
   43        0.0000000000
   44        0.0131217200
   45       -0.0062000100
   46       -0.0000000000
 Ene=          0.04887110
 Spin= Alpha
 Occup=        0.00000000
    1       -0.0181954900
    2       -0.0311184300
    3       -0.0129460900
    4        0.0000000000
    5        0.0000000000
    6        0.1243306100
    7        0.0551401700
    8        0.0000000000
    9        0.0000000000
   10       -0.2335743600
   11       -0.4991614500
   12        0.0000000000
   13        0.0000000000
   14        7.7765766200
   15        3.5347517800
   16        0.0000000000
   17        0.0000000000
   18       -0.0081447800
   19        0.0087629400
   20        0.0087629400
   21       -0.0000000000
   22        0.0000000000
   23       -0.0000000000
   24        0.0181954900
   25        0.0311184300
   26       -0.0129460900
   27       -0.0000000000
   28        0.0000000000
   29       -0.1243306100
   30        0.0551401700
   31       -0.0000000000
   32       -0.0000000000
   33        0.2335743600
   34       -0.4991614500
   35        0.0000000000
   36        0.0000000000
   37       -7.7765766200
   38        3.5347517800
   39       -0.0000000000
   40       -0.0000000000
   41        0.0081447800
   42       -0.0087629400
   43       -0.0087629400
   44       -0.0000000000
   45       -0.0000000000
   46        0.0000000000
 Ene=          0.05537000
 Spin= Alpha
 Occup=        0.00000000
    1        0.0000000000
    2        0.0000000000
    3        0.0000000000
    4        0.0017297200
    5        0.0338378600
    6       -0.0000000000
    7       -0.0000000000
    8        0.0065325400
    9        0.1277937700
   10       -0.0000000000
   11        0.0000000000
   12       -0.0068033600
   13       -0.1330917300
   14       -0.0000000000
   15       -0.0000000000
   16        0.0831430000
   17        1.6264975500
   18        0.0000000000
   19        0.0000000000
   20        0.0000000000
   21       -0.0004868300
   22       -0.0095237500
   23       -0.0000000000
   24       -0.0000000000
   25       -0.0000000000
   26        0.0000000000
   27       -0.0017297200
   28       -0.0338378600
   29        0.0000000000
   30       -0.0000000000
   31       -0.0065325400
   32       -0.1277937700
   33        0.0000000000
   34        0.0000000000
   35        0.0068033600
   36        0.1330917300
   37        0.0000000000
   38       -0.0000000000
   39       -0.0831430000
   40       -1.6264975500
   41       -0.0000000000
   42       -0.0000000000
   43       -0.0000000000
   44       -0.0004868300
   45       -0.0095237500
   46        0.0000000000
 Ene=          0.05537000
 Spin= Alpha
 Occup=        0.00000000
    1        0.0000000000
    2        0.0000000000
    3        0.0000000000
    4        0.0338378600
    5       -0.0017297200
    6       -0.0000000000
    7       -0.0000000000
    8        0.1277937700
    9       -0.0065325400
   10       -0.0000000000
   11        0.0000000000
   12       -0.1330917300
   13        0.0068033600
   14       -0.0000000000
   15       -0.0000000000
   16        1.6264975500
   17       -0.0831430000
   18        0.0000000000
   19        0.0000000000
   20        0.0000000000
   21       -0.0095237500
   22        0.0004868300
   23       -0.0000000000
   24       -0.0000000000
   25       -0.0000000000
   26        0.0000000000
   27       -0.0338378600
   28        0.0017297200
   29        0.0000000000
   30       -0.0000000000
   31       -0.1277937700
   32        0.0065325400
   33        0.0000000000
   34        0.0000000000
   35        0.1330917300
   36       -0.0068033600
   37        0.0000000000
   38       -0.0000000000
   39       -1.6264975500
   40        0.0831430000
   41       -0.0000000000
   42       -0.0000000000
   43       -0.0000000000
   44       -0.0095237500
   45        0.0004868300
   46       -0.0000000000
 Ene=          0.06346460
 Spin= Alpha
 Occup=        0.00000000
    1        0.0207231000
    2        0.0453700000
    3        0.0681656500
    4       -0.0000000000
    5        0.0000000000
    6        0.0098999800
    7        0.0911902100
    8       -0.0000000000
    9        0.0000000000
   10       -1.1846568000
   11        0.2745785500
   12        0.0000000000
   13        0.0000000000
   14        1.0034771900
   15        0.2339865200
   16       -0.0000000000
   17        0.0000000000
   18        0.0335716800
   19        0.0355739700
   20        0.0355739700
   21        0.0000000000
   22        0.0000000000
   23        0.0000000000
   24        0.0207231000
   25        0.0453700000
   26       -0.0681656500
   27        0.0000000000
   28       -0.0000000000
   29        0.0098999800
   30       -0.0911902100
   31        0.0000000000
   32       -0.0000000000
   33       -1.1846568000
   34       -0.2745785500
   35       -0.0000000000
   36        0.0000000000
   37        1.0034771900
   38       -0.2339865200
   39        0.0000000000
   40       -0.0000000000
   41        0.0335716800
   42        0.0355739700
   43        0.0355739700
   44       -0.0000000000
   45       -0.0000000000
   46       -0.0000000000
 Ene=          0.07666460
 Spin= Alpha
 Occup=        0.00000000
    1        0.0018188300
    2        0.0022581300
    3        0.0867463100
    4        0.0000000000
    5       -0.0000000000
    6       -0.0430168700
    7        0.0313526900
    8       -0.0000000000
    9       -0.0000000000
   10        0.0748121500
   11        0.5671990200
   12        0.0000000000
   13       -0.0000000000
   14        0.2475616500
   15       -1.4792792700
   16        0.0000000000
   17        0.0000000000
   18        0.0166185200
   19       -0.0147360700
   20       -0.0147360700
   21        0.0000000000
   22       -0.0000000000
   23       -0.0000000000
   24        0.0018188300
   25        0.0022581300
   26       -0.0867463100
   27       -0.0000000000
   28       -0.0000000000
   29       -0.0430168700
   30       -0.0313526900
   31       -0.0000000000
   32       -0.0000000000
   33        0.0748121500
   34       -0.5671990200
   35        0.0000000000
   36       -0.0000000000
   37        0.2475616500
   38        1.4792792700
   39       -0.0000000000
   40        0.0000000000
   41        0.0166185200
   42       -0.0147360700
   43       -0.0147360700
   44       -0.0000000000
   45        0.0000000000
   46        0.0000000000
 Ene=          0.07829060
 Spin= Alpha
 Occup=        0.00000000
    1        0.0000000000
    2        0.0000000000
    3        0.0000000000
    4        0.0268489000
    5        0.1004041200
    6        0.0000000000
    7       -0.0000000000
    8        0.0113595900
    9        0.0424803300
   10       -0.0000000000
   11        0.0000000000
   12        0.1826071800
   13        0.6828777000
   14        0.0000000000
   15        0.0000000000
   16       -0.1881134200
   17       -0.7034688100
   18        0.0000000000
   19        0.0000000000
   20        0.0000000000
   21        0.0038429500
   22        0.0143711100
   23       -0.0000000000
   24       -0.0000000000
   25       -0.0000000000
   26       -0.0000000000
   27        0.0268489000
   28        0.1004041200
   29       -0.0000000000
   30       -0.0000000000
   31        0.0113595900
   32        0.0424803300
   33        0.0000000000
   34       -0.0000000000
   35        0.1826071800
   36        0.6828777000
   37       -0.0000000000
   38        0.0000000000
   39       -0.1881134200
   40       -0.7034688100
   41       -0.0000000000
   42       -0.0000000000
   43       -0.0000000000
   44       -0.0038429500
   45       -0.0143711100
   46        0.0000000000
 Ene=          0.07829060
 Spin= Alpha
 Occup=        0.00000000
    1       -0.0000000000
    2       -0.0000000000
    3        0.0000000000
    4       -0.1004041200
    5        0.0268489000
    6       -0.0000000000
    7        0.0000000000
    8       -0.0424803300
    9        0.0113595900
   10        0.0000000000
   11        0.0000000000
   12       -0.6828777000
   13        0.1826071800
   14       -0.0000000000
   15       -0.0000000000
   16        0.7034688100
   17       -0.1881134200
   18       -0.0000000000
   19       -0.0000000000
   20       -0.0000000000
   21       -0.0143711100
   22        0.0038429500
   23        0.0000000000
   24        0.0000000000
   25        0.0000000000
   26       -0.0000000000
   27       -0.1004041200
   28        0.0268489000
   29        0.0000000000
   30        0.0000000000
   31       -0.0424803300
   32        0.0113595900
   33       -0.0000000000
   34       -0.0000000000
   35       -0.6828777000
   36        0.1826071800
   37        0.0000000000
   38       -0.0000000000
   39        0.7034688100
   40       -0.1881134200
   41        0.0000000000
   42        0.0000000000
   43        0.0000000000
   44        0.0143711100
   45       -0.0038429500
   46       -0.0000000000
 Ene=          0.10556600
 Spin= Alpha
 Occup=        0.00000000
    1        0.0162486500
    2        0.0380122400
    3        0.0213605600
    4        0.0000000000
    5       -0.0000000000
    6        0.0752669900
    7       -0.0458237200
    8       -0.0000000000
    9       -0.0000000000
   10       -1.7456112300
   11        0.1499564200
   12        0.0000000000
   13       -0.0000000000
   14       21.0259020000
   15        6.8578348600
   16       -0.0000000000
   17        0.0000000000
   18        0.0233483000
   19        0.0429691300
   20        0.0429691300
   21       -0.0000000000
   22        0.0000000000
   23        0.0000000000
   24       -0.0162486500
   25       -0.0380122400
   26        0.0213605600
   27       -0.0000000000
   28        0.0000000000
   29       -0.0752669900
   30       -0.0458237200
   31       -0.0000000000
   32       -0.0000000000
   33        1.7456112300
   34        0.1499564200
   35       -0.0000000000
   36        0.0000000000
   37      -21.0259020000
   38        6.8578348600
   39        0.0000000000
   40        0.0000000000
   41       -0.0233483000
   42       -0.0429691300
   43       -0.0429691300
   44        0.0000000000
   45        0.0000000000
   46       -0.0000000000
 Ene=          0.12792300
 Spin= Alpha
 Occup=        0.00000000
    1       -0.0000000000
    2       -0.0000000000
    3       -0.0000000000
    4        0.0160836600
    5       -0.1356799300
    6       -0.0000000000
    7        0.0000000000
    8        0.0107984700
    9       -0.0910947100
   10        0.0000000000
   11       -0.0000000000
   12        0.1386426600
   13       -1.1695740000
   14       -0.0000000000
   15       -0.0000000000
   16       -0.1643564200
   17        1.3864923400
   18        0.0000000000
   19       -0.0000000000
   20       -0.0000000000
   21       -0.0006032800
   22        0.0050892100
   23       -0.0000000000
   24        0.0000000000
   25        0.0000000000
   26       -0.0000000000
   27       -0.0160836600
   28        0.1356799300
   29        0.0000000000
   30        0.0000000000
   31       -0.0107984700
   32        0.0910947100
   33       -0.0000000000
   34       -0.0000000000
   35       -0.1386426600
   36        1.1695740000
   37        0.0000000000
   38       -0.0000000000
   39        0.1643564200
   40       -1.3864923400
   41        0.0000000000
   42        0.0000000000
   43        0.0000000000
   44       -0.0006032800
   45        0.0050892100
   46        0.0000000000
 Ene=          0.12792300
 Spin= Alpha
 Occup=        0.00000000
    1        0.0000000000
    2        0.0000000000
    3        0.0000000000
    4       -0.1356799300
    5       -0.0160836600
    6        0.0000000000
    7       -0.0000000000
    8       -0.0910947100
    9       -0.0107984700
   10       -0.0000000000
   11        0.0000000000
   12       -1.1695740000
   13       -0.1386426600
   14        0.0000000000
   15        0.0000000000
   16        1.3864923400
   17        0.1643564200
   18        0.0000000000
   19        0.0000000000
   20        0.0000000000
   21        0.0050892100
   22        0.0006032800
   23       -0.0000000000
   24       -0.0000000000
   25       -0.0000000000
   26        0.0000000000
   27        0.1356799300
   28        0.0160836600
   29       -0.0000000000
   30       -0.0000000000
   31        0.0910947100
   32        0.0107984700
   33        0.0000000000
   34        0.0000000000
   35        1.1695740000
   36        0.1386426600
   37       -0.0000000000
   38        0.0000000000
   39       -1.3864923400
   40       -0.1643564200
   41        0.0000000000
   42       -0.0000000000
   43       -0.0000000000
   44        0.0050892100
   45        0.0006032800
   46        0.0000000000
 Ene=          0.20320800
 Spin= Alpha
 Occup=        0.00000000
    1        0.0344793400
    2        0.0651035600
    3       -0.0901800700
    4       -0.0000000000
    5       -0.0000000000
    6       -0.0711998600
    7        0.0527276000
    8       -0.0000000000
    9        0.0000000000
   10       -3.1812720600
   11       -2.8501549800
   12       -0.0000000000
   13       -0.0000000000
   14        3.7097249800
   15        1.7964031000
   16        0.0000000000
   17       -0.0000000000
   18        0.0285176600
   19        0.0092309500
   20        0.0092309500
   21       -0.0000000000
   22       -0.0000000000
   23        0.0000000000
   24       -0.0344793400
   25       -0.0651035600
   26       -0.0901800700
   27       -0.0000000000
   28        0.0000000000
   29        0.0711998600
   30        0.0527276000
   31       -0.0000000000
   32       -0.0000000000
   33        3.1812720600
   34       -2.8501549800
   35        0.0000000000
   36        0.0000000000
   37       -3.7097249800
   38        1.7964031000
   39       -0.0000000000
   40        0.0000000000
   41       -0.0285176600
   42       -0.0092309500
   43       -0.0092309500
   44       -0.0000000000
   45        0.0000000000
   46       -0.0000000000
 Ene=          0.29945200
 Spin= Alpha
 Occup=        0.00000000
    1       -0.0222908200
    2       -0.0191626000
    3        0.0708940600
    4        0.0000000000
    5       -0.0000000000
    6        0.6984901300
    7        0.7092731700
    8        0.0000000000
    9       -0.0000000000
   10       -0.9580572300
   11       -1.3184896300
   12       -0.0000000000
   13        0.0000000000
   14        0.2204529200
   15        0.9011950000
   16        0.0000000000
   17       -0.0000000000
   18        0.1393934200
   19        0.0746846800
   20        0.0746846800
   21       -0.0000000000
   22       -0.0000000000
   23       -0.0000000000
   24       -0.0222908200
   25       -0.0191626000
   26       -0.0708940600
   27        0.0000000000
   28       -0.0000000000
   29        0.6984901300
   30       -0.7092731700
   31        0.0000000000
   32       -0.0000000000
   33       -0.9580572300
   34        1.3184896300
   35       -0.0000000000
   36        0.0000000000
   37        0.2204529200
   38       -0.9011950000
   39        0.0000000000
   40       -0.0000000000
   41        0.1393934200
   42        0.0746846800
   43        0.0746846800
   44        0.0000000000
   45        0.0000000000
   46        0.0000000000
 Ene=          0.32773700
 Spin= Alpha
 Occup=        0.00000000
    1       -0.0632148000
    2       -0.0767854400
    3       -0.0697216500
    4       -0.0000000000
    5        0.0000000000
    6        1.1282756100
    7       -0.4295041300
    8        0.0000000000
    9        0.0000000000
   10       -2.0154793000
   11        0.6323036200
   12       -0.0000000000
   13       -0.0000000000
   14        0.7686267700
   15       -0.1610080400
   16        0.0000000000
   17        0.0000000000
   18        0.1803379000
   19        0.1537975900
   20        0.1537975900
   21        0.0000000000
   22        0.0000000000
   23        0.0000000000
   24       -0.0632148000
   25       -0.0767854400
   26        0.0697216500
   27        0.0000000000
   28        0.0000000000
   29        1.1282756100
   30        0.4295041300
   31        0.0000000000
   32        0.0000000000
   33       -2.0154793000
   34       -0.6323036200
   35       -0.0000000000
   36       -0.0000000000
   37        0.7686267700
   38        0.1610080400
   39        0.0000000000
   40        0.0000000000
   41        0.1803379000
   42        0.1537975900
   43        0.1537975900
   44        0.0000000000
   45       -0.0000000000
   46       -0.0000000000
 Ene=          0.33256000
 Spin= Alpha
 Occup=        0.00000000
    1        0.0000000000
    2        0.0000000000
    3       -0.0000000000
    4        0.1169057100
    5        0.0007268400
    6       -0.0000000000
    7        0.0000000000
    8        0.9323434800
    9        0.0057966800
   10        0.0000000000
   11        0.0000000000
   12       -1.1599708100
   13       -0.0072119100
   14       -0.0000000000
   15       -0.0000000000
   16        0.4502095200
   17        0.0027991000
   18       -0.0000000000
   19       -0.0000000000
   20       -0.0000000000
   21        0.0587420800
   22        0.0003652200
   23       -0.0000000000
   24       -0.0000000000
   25       -0.0000000000
   26        0.0000000000
   27        0.1169057100
   28        0.0007268400
   29        0.0000000000
   30        0.0000000000
   31        0.9323434800
   32        0.0057966800
   33       -0.0000000000
   34        0.0000000000
   35       -1.1599708100
   36       -0.0072119100
   37        0.0000000000
   38        0.0000000000
   39        0.4502095200
   40        0.0027991000
   41        0.0000000000
   42        0.0000000000
   43        0.0000000000
   44       -0.0587420800
   45       -0.0003652200
   46       -0.0000000000
 Ene=          0.33256000
 Spin= Alpha
 Occup=        0.00000000
    1        0.0000000000
    2        0.0000000000
    3        0.0000000000
    4       -0.0007268400
    5        0.1169057100
    6       -0.0000000000
    7        0.0000000000
    8       -0.0057966800
    9        0.9323434800
   10        0.0000000000
   11       -0.0000000000
   12        0.0072119100
   13       -1.1599708100
   14        0.0000000000
   15        0.0000000000
   16       -0.0027991000
   17        0.4502095200
   18       -0.0000000000
   19       -0.0000000000
   20       -0.0000000000
   21       -0.0003652200
   22        0.0587420800
   23       -0.0000000000
   24        0.0000000000
   25        0.0000000000
   26       -0.0000000000
   27       -0.0007268400
   28        0.1169057100
   29       -0.0000000000
   30       -0.0000000000
   31       -0.0057966800
   32        0.9323434800
   33       -0.0000000000
   34        0.0000000000
   35        0.0072119100
   36       -1.1599708100
   37       -0.0000000000
   38        0.0000000000
   39       -0.0027991000
   40        0.4502095200
   41       -0.0000000000
   42       -0.0000000000
   43       -0.0000000000
   44        0.0003652200
   45       -0.0587420800
   46       -0.0000000000
 Ene=          0.36018500
 Spin= Alpha
 Occup=        0.00000000
    1        0.0000000000
    2        0.0000000000