 Molden2AIM, Version 3.1.0 (02/25/2015)           Time: Tue Oct 29 15:50:36 2024
GAUSSIAN             46 MOL ORBITALS     72 PRIMITIVES        2 NUCLEI
  Be   1    (CENTRE  1)   0.00000000  0.00000000  0.00000000  CHARGE =  4.0
  Be   2    (CENTRE  2)   4.63600000  0.00000000  0.00000000  CHARGE =  4.0
CENTRE ASSIGNMENTS    1  1  1  1  1  1  1  1  1  1  1  1  1  1  1  1  1  1  1  1
CENTRE ASSIGNMENTS    1  1  1  1  1  1  1  1  1  1  1  1  1  1  1  1  2  2  2  2
CENTRE ASSIGNMENTS    2  2  2  2  2  2  2  2  2  2  2  2  2  2  2  2  2  2  2  2
CENTRE ASSIGNMENTS    2  2  2  2  2  2  2  2  2  2  2  2
TYPE ASSIGNMENTS      1  1  1  1  1  1  1  1  1  2  2  2  3  3  3  4  4  4  1  2
TYPE ASSIGNMENTS      3  4  1  2  3  4  1  2  3  4  5  6  7  8  9 10  1  1  1  1
TYPE ASSIGNMENTS      1  1  1  1  1  2  2  2  3  3  3  4  4  4  1  2  3  4  1  2
TYPE ASSIGNMENTS      3  4  1  2  3  4  5  6  7  8  9 10
EXPONENTS  0.1682800D+04 0.2517150D+03 0.5741160D+02 0.1651710D+02 0.4853640D+01
EXPONENTS  0.6268630D+00 0.8309380D+01 0.1740750D+01 0.4858160D+00 0.8309380D+01
EXPONENTS  0.1740750D+01 0.4858160D+00 0.8309380D+01 0.1740750D+01 0.4858160D+00
EXPONENTS  0.8309380D+01 0.1740750D+01 0.4858160D+00 0.1636130D+00 0.1636130D+00
EXPONENTS  0.1636130D+00 0.1636130D+00 0.5672850D-01 0.5672850D-01 0.5672850D-01
EXPONENTS  0.5672850D-01 0.2070000D-01 0.2070000D-01 0.2070000D-01 0.2070000D-01
EXPONENTS  0.2550000D+00 0.2550000D+00 0.2550000D+00 0.2550000D+00 0.2550000D+00
EXPONENTS  0.2550000D+00 0.1682800D+04 0.2517150D+03 0.5741160D+02 0.1651710D+02
EXPONENTS  0.4853640D+01 0.6268630D+00 0.8309380D+01 0.1740750D+01 0.4858160D+00
EXPONENTS  0.8309380D+01 0.1740750D+01 0.4858160D+00 0.8309380D+01 0.1740750D+01
EXPONENTS  0.4858160D+00 0.8309380D+01 0.1740750D+01 0.4858160D+00 0.1636130D+00
EXPONENTS  0.1636130D+00 0.1636130D+00 0.1636130D+00 0.5672850D-01 0.5672850D-01
EXPONENTS  0.5672850D-01 0.5672850D-01 0.2070000D-01 0.2070000D-01 0.2070000D-01
EXPONENTS  0.2070000D-01 0.2550000D+00 0.2550000D+00 0.2550000D+00 0.2550000D+00
EXPONENTS  0.2550000D+00 0.2550000D+00
MO    1     MO 0.0        OCC NO =    2.0000000  ORB. ENERGY =   -4.731380
  0.18043766D+00  0.33405460D+00  0.54099719D+00  0.69377918D+00  0.62937505D+00
  0.30579059D-01  0.11954257D+00  0.31601331D+00 -0.38885680D-03  0.17626206D-03
  0.14999383D-03  0.11805816D-03  0.00000000D+00  0.00000000D+00  0.00000000D+00
  0.00000000D+00  0.00000000D+00  0.00000000D+00 -0.50852532D-03  0.51750353D-05
 -0.00000000D+00  0.00000000D+00  0.79258513D-04  0.10718191D-05  0.00000000D+00
 -0.00000000D+00 -0.95427581D-05 -0.86367733D-06 -0.00000000D+00  0.00000000D+00
  0.72902932D-04  0.42939006D-04  0.42939006D-04  0.00000000D+00 -0.00000000D+00
 -0.00000000D+00  0.18043766D+00  0.33405460D+00  0.54099719D+00  0.69377918D+00
  0.62937505D+00  0.30579059D-01  0.11954257D+00  0.31601331D+00 -0.38885680D-03
 -0.17626206D-03 -0.14999383D-03 -0.11805816D-03 -0.00000000D+00 -0.00000000D+00
 -0.00000000D+00  0.00000000D+00  0.00000000D+00  0.00000000D+00 -0.50852532D-03
 -0.51750353D-05  0.00000000D+00 -0.00000000D+00  0.79258513D-04 -0.10718191D-05
 -0.00000000D+00  0.00000000D+00 -0.95427581D-05  0.86367733D-06  0.00000000D+00
 -0.00000000D+00  0.72902932D-04  0.42939006D-04  0.42939006D-04 -0.00000000D+00
 -0.00000000D+00 -0.00000000D+00
MO    2     MO 0.0        OCC NO =    2.0000000  ORB. ENERGY =   -4.731350
  0.18046136D+00  0.33409848D+00  0.54106825D+00  0.69387030D+00  0.62945772D+00
  0.30583075D-01  0.11957243D+00  0.31609223D+00 -0.38895392D-03  0.17987348D-03
  0.15306704D-03  0.12047705D-03  0.00000000D+00  0.00000000D+00  0.00000000D+00
  0.00000000D+00  0.00000000D+00  0.00000000D+00 -0.58898158D-03 -0.68877362D-04
  0.00000000D+00 -0.00000000D+00  0.16329878D-03  0.22259188D-04  0.00000000D+00
  0.00000000D+00 -0.11414049D-03 -0.10294962D-04 -0.00000000D+00 -0.00000000D+00
  0.20790251D-04  0.42273309D-04  0.42273309D-04 -0.00000000D+00 -0.00000000D+00
  0.00000000D+00 -0.18046136D+00 -0.33409848D+00 -0.54106825D+00 -0.69387030D+00
 -0.62945772D+00 -0.30583075D-01 -0.11957243D+00 -0.31609223D+00  0.38895392D-03
  0.17987348D-03  0.15306704D-03  0.12047705D-03  0.00000000D+00  0.00000000D+00
  0.00000000D+00 -0.00000000D+00 -0.00000000D+00 -0.00000000D+00  0.58898158D-03
 -0.68877362D-04  0.00000000D+00 -0.00000000D+00 -0.16329878D-03  0.22259188D-04
 -0.00000000D+00 -0.00000000D+00  0.11414049D-03 -0.10294962D-04  0.00000000D+00
 -0.00000000D+00 -0.20790251D-04 -0.42273309D-04 -0.42273309D-04  0.00000000D+00
 -0.00000000D+00 -0.00000000D+00
MO    3     MO 0.0        OCC NO =    2.0000000  ORB. ENERGY =   -0.395680
 -0.33102979D-01 -0.61285446D-01 -0.99251002D-01 -0.12728029D+00 -0.11546475D+00
 -0.56100148D-02 -0.48786205D-01 -0.12896736D+00  0.15869533D-03  0.29563980D-01
  0.25158078D-01  0.19801591D-01  0.00000000D+00  0.00000000D+00  0.00000000D+00
 -0.00000000D+00 -0.00000000D+00 -0.00000000D+00  0.73550928D-01  0.11004844D-01
  0.00000000D+00 -0.00000000D+00  0.19423346D-01  0.21053352D-03 -0.00000000D+00
  0.00000000D+00 -0.12277156D-03 -0.36949542D-04 -0.00000000D+00 -0.00000000D+00
  0.26232209D-02 -0.11350582D-02 -0.11350582D-02 -0.00000000D+00 -0.00000000D+00
  0.00000000D+00 -0.33102979D-01 -0.61285446D-01 -0.99251002D-01 -0.12728029D+00
 -0.11546475D+00 -0.56100148D-02 -0.48786205D-01 -0.12896736D+00  0.15869533D-03
 -0.29563980D-01 -0.25158078D-01 -0.19801591D-01  0.00000000D+00  0.00000000D+00
  0.00000000D+00 -0.00000000D+00 -0.00000000D+00 -0.00000000D+00  0.73550928D-01
 -0.11004844D-01 -0.00000000D+00  0.00000000D+00  0.19423346D-01 -0.21053352D-03
  0.00000000D+00 -0.00000000D+00 -0.12277156D-03  0.36949542D-04 -0.00000000D+00
  0.00000000D+00  0.26232209D-02 -0.11350582D-02 -0.11350582D-02 -0.00000000D+00
 -0.00000000D+00  0.00000000D+00
MO    4     MO 0.0        OCC NO =    2.0000000  ORB. ENERGY =   -0.242959
 -0.32330750D-01 -0.59855774D-01 -0.96935667D-01 -0.12431108D+00 -0.11277118D+00
 -0.54791440D-02 -0.48828018D-01 -0.12907789D+00  0.15883134D-03 -0.29990186D-01
 -0.25520766D-01 -0.20087059D-01  0.00000000D+00  0.00000000D+00  0.00000000D+00
  0.00000000D+00  0.00000000D+00  0.00000000D+00  0.73559129D-01 -0.89498283D-02
  0.00000000D+00  0.00000000D+00  0.42287719D-01 -0.43608514D-03 -0.00000000D+00
 -0.00000000D+00  0.25926279D-02 -0.37316971D-04  0.00000000D+00  0.00000000D+00
 -0.11805561D-02  0.57799125D-03  0.57799125D-03 -0.00000000D+00  0.00000000D+00
 -0.00000000D+00  0.32330750D-01  0.59855774D-01  0.96935667D-01  0.12431108D+00
  0.11277118D+00  0.54791440D-02  0.48828018D-01  0.12907789D+00 -0.15883134D-03
 -0.29990186D-01 -0.25520766D-01 -0.20087059D-01 -0.00000000D+00 -0.00000000D+00
 -0.00000000D+00 -0.00000000D+00 -0.00000000D+00 -0.00000000D+00 -0.73559129D-01
 -0.89498283D-02 -0.00000000D+00  0.00000000D+00 -0.42287719D-01 -0.43608514D-03
  0.00000000D+00  0.00000000D+00 -0.25926279D-02 -0.37316971D-04  0.00000000D+00
  0.00000000D+00  0.11805561D-02 -0.57799125D-03 -0.57799125D-03  0.00000000D+00
 -0.00000000D+00 -0.00000000D+00
MO    5     MO 0.0        OCC NO =    0.0000000  ORB. ENERGY =    0.007833
  0.53444390D-03  0.98944666D-03  0.16023963D-02  0.20549260D-02  0.18641654D-02
  0.90573061D-04  0.25121190D-03  0.66408395D-03 -0.81716040D-06  0.79393352D-01
  0.67561408D-01  0.53176693D-01 -0.00000000D+00 -0.00000000D+00 -0.00000000D+00
  0.00000000D+00  0.00000000D+00  0.00000000D+00 -0.39537538D-02  0.31081925D-01
 -0.00000000D+00  0.00000000D+00  0.65166168D-02  0.67201524D-02  0.00000000D+00
  0.00000000D+00 -0.18155608D-01  0.37271641D-02 -0.00000000D+00  0.00000000D+00
  0.97226953D-03 -0.18019035D-02 -0.18019035D-02  0.00000000D+00  0.00000000D+00
 -0.00000000D+00  0.53444390D-03  0.98944666D-03  0.16023963D-02  0.20549260D-02
  0.18641654D-02  0.90573061D-04  0.25121190D-03  0.66408395D-03 -0.81716040D-06
 -0.79393352D-01 -0.67561408D-01 -0.53176693D-01 -0.00000000D+00 -0.00000000D+00
 -0.00000000D+00  0.00000000D+00  0.00000000D+00  0.00000000D+00 -0.39537538D-02
 -0.31081925D-01  0.00000000D+00  0.00000000D+00  0.65166168D-02 -0.67201524D-02
 -0.00000000D+00  0.00000000D+00 -0.18155608D-01 -0.37271641D-02  0.00000000D+00
  0.00000000D+00  0.97226953D-03 -0.18019035D-02 -0.18019035D-02  0.00000000D+00
 -0.00000000D+00 -0.00000000D+00
MO    6     MO 0.0        OCC NO =    0.0000000  ORB. ENERGY =    0.011313
  0.00000000D+00  0.00000000D+00  0.00000000D+00  0.00000000D+00  0.00000000D+00
  0.00000000D+00  0.00000000D+00  0.00000000D+00 -0.00000000D+00 -0.00000000D+00
 -0.00000000D+00 -0.00000000D+00  0.24411107D-01  0.20773134D-01  0.16350260D-01
  0.51663698D-01  0.43964287D-01  0.34603711D-01 -0.00000000D+00 -0.00000000D+00
  0.10421496D-01  0.22056066D-01 -0.00000000D+00 -0.00000000D+00  0.19892409D-02
  0.42100319D-02 -0.00000000D+00 -0.00000000D+00  0.16196234D-02  0.34277727D-02
 -0.00000000D+00  0.00000000D+00  0.00000000D+00  0.16173641D-02  0.34229942D-02
  0.00000000D+00 -0.00000000D+00 -0.00000000D+00 -0.00000000D+00 -0.00000000D+00
 -0.00000000D+00 -0.00000000D+00  0.00000000D+00  0.00000000D+00 -0.00000000D+00
  0.00000000D+00  0.00000000D+00  0.00000000D+00  0.24411107D-01  0.20773134D-01
  0.16350260D-01  0.51663698D-01  0.43964287D-01  0.34603711D-01  0.00000000D+00
  0.00000000D+00  0.10421496D-01  0.22056066D-01 -0.00000000D+00  0.00000000D+00
  0.19892409D-02  0.42100319D-02  0.00000000D+00 -0.00000000D+00  0.16196234D-02
  0.34277727D-02  0.00000000D+00  0.00000000D+00  0.00000000D+00 -0.16173641D-02
 -0.34229942D-02  0.00000000D+00
MO    7     MO 0.0        OCC NO =    0.0000000  ORB. ENERGY =    0.011313
  0.00000000D+00  0.00000000D+00  0.00000000D+00  0.00000000D+00  0.00000000D+00
  0.00000000D+00  0.00000000D+00  0.00000000D+00 -0.00000000D+00 -0.00000000D+00
 -0.00000000D+00 -0.00000000D+00 -0.51663698D-01 -0.43964287D-01 -0.34603711D-01
  0.24411107D-01  0.20773134D-01  0.16350260D-01 -0.00000000D+00 -0.00000000D+00
 -0.22056066D-01  0.10421496D-01  0.00000000D+00 -0.00000000D+00 -0.42100319D-02
  0.19892409D-02 -0.00000000D+00 -0.00000000D+00 -0.34277727D-02  0.16196234D-02
 -0.00000000D+00  0.00000000D+00  0.00000000D+00 -0.34229942D-02  0.16173641D-02
  0.00000000D+00 -0.00000000D+00 -0.00000000D+00 -0.00000000D+00 -0.00000000D+00
 -0.00000000D+00 -0.00000000D+00  0.00000000D+00  0.00000000D+00 -0.00000000D+00
  0.00000000D+00  0.00000000D+00  0.00000000D+00 -0.51663698D-01 -0.43964287D-01
 -0.34603711D-01  0.24411107D-01  0.20773134D-01  0.16350260D-01  0.00000000D+00
  0.00000000D+00 -0.22056066D-01  0.10421496D-01 -0.00000000D+00  0.00000000D+00
 -0.42100319D-02  0.19892409D-02  0.00000000D+00 -0.00000000D+00 -0.34277727D-02
  0.16196234D-02  0.00000000D+00  0.00000000D+00  0.00000000D+00  0.34229942D-02
 -0.16173641D-02 -0.00000000D+00
MO    8     MO 0.0        OCC NO =    0.0000000  ORB. ENERGY =    0.048871
 -0.77879859D-02 -0.14418345D-01 -0.23350327D-01 -0.29944649D-01 -0.27164861D-01
 -0.13198424D-02 -0.11790118D-01 -0.31167426D-01  0.38351757D-04 -0.94071999D-02
 -0.80052504D-02 -0.63008270D-02  0.00000000D+00  0.00000000D+00  0.00000000D+00
  0.00000000D+00  0.00000000D+00  0.00000000D+00  0.22795625D-01  0.81786279D-02
  0.00000000D+00  0.00000000D+00 -0.19350235D-01 -0.19698482D-01  0.00000000D+00
  0.00000000D+00  0.30246582D+00  0.39560515D-01  0.00000000D+00  0.00000000D+00
 -0.12266880D-02  0.13197893D-02  0.13197893D-02 -0.00000000D+00  0.00000000D+00
 -0.00000000D+00  0.77879859D-02  0.14418345D-01  0.23350327D-01  0.29944649D-01
  0.27164861D-01  0.13198424D-02  0.11790118D-01  0.31167426D-01 -0.38351757D-04
 -0.94071999D-02 -0.80052504D-02 -0.63008270D-02 -0.00000000D+00 -0.00000000D+00
 -0.00000000D+00  0.00000000D+00  0.00000000D+00  0.00000000D+00 -0.22795625D-01
  0.81786279D-02 -0.00000000D+00 -0.00000000D+00  0.19350235D-01 -0.19698482D-01
  0.00000000D+00  0.00000000D+00 -0.30246582D+00  0.39560515D-01 -0.00000000D+00
 -0.00000000D+00  0.12266880D-02 -0.13197893D-02 -0.13197893D-02 -0.00000000D+00
 -0.00000000D+00  0.00000000D+00
MO    9     MO 0.0        OCC NO =    0.0000000  ORB. ENERGY =    0.055370
  0.00000000D+00  0.00000000D+00  0.00000000D+00  0.00000000D+00  0.00000000D+00
  0.00000000D+00  0.00000000D+00  0.00000000D+00 -0.00000000D+00  0.00000000D+00
  0.00000000D+00  0.00000000D+00  0.12568908D-02  0.10695771D-02  0.84185005D-03
  0.24588081D-01  0.20923734D-01  0.16468795D-01 -0.00000000D+00 -0.00000000D+00
  0.96893451D-03  0.18954923D-01 -0.00000000D+00  0.00000000D+00 -0.26848199D-03
 -0.52522185D-02 -0.00000000D+00 -0.00000000D+00  0.93052642D-03  0.18203564D-01
  0.00000000D+00  0.00000000D+00  0.00000000D+00 -0.12699679D-03 -0.24844107D-02
 -0.00000000D+00 -0.00000000D+00 -0.00000000D+00 -0.00000000D+00 -0.00000000D+00
 -0.00000000D+00 -0.00000000D+00 -0.00000000D+00 -0.00000000D+00  0.00000000D+00
  0.00000000D+00  0.00000000D+00  0.00000000D+00 -0.12568908D-02 -0.10695771D-02
 -0.84185005D-03 -0.24588081D-01 -0.20923734D-01 -0.16468795D-01  0.00000000D+00
 -0.00000000D+00 -0.96893451D-03 -0.18954923D-01  0.00000000D+00  0.00000000D+00
  0.26848199D-03  0.52522185D-02  0.00000000D+00 -0.00000000D+00 -0.93052642D-03
 -0.18203564D-01 -0.00000000D+00 -0.00000000D+00 -0.00000000D+00 -0.12699679D-03
 -0.24844107D-02  0.00000000D+00
MO   10     MO 0.0        OCC NO =    0.0000000  ORB. ENERGY =    0.055370
  0.00000000D+00  0.00000000D+00  0.00000000D+00  0.00000000D+00  0.00000000D+00
  0.00000000D+00  0.00000000D+00  0.00000000D+00 -0.00000000D+00  0.00000000D+00
  0.00000000D+00  0.00000000D+00  0.24588081D-01  0.20923734D-01  0.16468795D-01
 -0.12568908D-02 -0.10695771D-02 -0.84185005D-03 -0.00000000D+00 -0.00000000D+00
  0.18954923D-01 -0.96893451D-03 -0.00000000D+00  0.00000000D+00 -0.52522185D-02
  0.26848199D-03 -0.00000000D+00 -0.00000000D+00  0.18203564D-01 -0.93052642D-03
  0.00000000D+00  0.00000000D+00  0.00000000D+00 -0.24844107D-02  0.12699679D-03
 -0.00000000D+00 -0.00000000D+00 -0.00000000D+00 -0.00000000D+00 -0.00000000D+00
 -0.00000000D+00 -0.00000000D+00 -0.00000000D+00 -0.00000000D+00  0.00000000D+00
  0.00000000D+00  0.00000000D+00  0.00000000D+00 -0.24588081D-01 -0.20923734D-01
 -0.16468795D-01  0.12568908D-02  0.10695771D-02  0.84185005D-03  0.00000000D+00
 -0.00000000D+00 -0.18954923D-01  0.96893451D-03  0.00000000D+00  0.00000000D+00
  0.52522185D-02 -0.26848199D-03  0.00000000D+00 -0.00000000D+00 -0.18203564D-01
  0.93052642D-03 -0.00000000D+00 -0.00000000D+00 -0.00000000D+00 -0.24844107D-02
  0.12699679D-03 -0.00000000D+00
MO   11     MO 0.0        OCC NO =    0.0000000  ORB. ENERGY =    0.063465
  0.88698469D-02  0.16421257D-01  0.26594017D-01  0.34104382D-01  0.30938443D-01
  0.15031871D-02  0.17189738D-01  0.45441434D-01 -0.55916034D-04  0.49532167D-01
  0.42150417D-01  0.33176038D-01 -0.00000000D+00 -0.00000000D+00 -0.00000000D+00
  0.00000000D+00  0.00000000D+00  0.00000000D+00  0.18151301D-02  0.13525725D-01
 -0.00000000D+00  0.00000000D+00 -0.98141710D-01  0.10835734D-01  0.00000000D+00
  0.00000000D+00  0.39029713D-01  0.26187489D-02 -0.00000000D+00  0.00000000D+00
  0.50562419D-02  0.53578075D-02  0.53578075D-02  0.00000000D+00  0.00000000D+00
  0.00000000D+00  0.88698469D-02  0.16421257D-01  0.26594017D-01  0.34104382D-01
  0.30938443D-01  0.15031871D-02  0.17189738D-01  0.45441434D-01 -0.55916034D-04
 -0.49532167D-01 -0.42150417D-01 -0.33176038D-01  0.00000000D+00  0.00000000D+00
  0.00000000D+00 -0.00000000D+00 -0.00000000D+00 -0.00000000D+00  0.18151301D-02
 -0.13525725D-01  0.00000000D+00 -0.00000000D+00 -0.98141710D-01 -0.10835734D-01
 -0.00000000D+00  0.00000000D+00  0.39029713D-01 -0.26187489D-02  0.00000000D+00
 -0.00000000D+00  0.50562419D-02  0.53578075D-02  0.53578075D-02 -0.00000000D+00
 -0.00000000D+00 -0.00000000D+00
MO   12     MO 0.0        OCC NO =    0.0000000  ORB. ENERGY =    0.076665
  0.77849084D-03  0.14412648D-02  0.23341100D-02  0.29932816D-02  0.27154127D-02
  0.13193209D-03  0.85555794D-03  0.22616854D-02 -0.27830213D-05  0.63033694D-01
  0.53639820D-01  0.42219195D-01  0.00000000D+00  0.00000000D+00  0.00000000D+00
 -0.00000000D+00 -0.00000000D+00 -0.00000000D+00 -0.78870075D-02  0.46503662D-02
 -0.00000000D+00 -0.00000000D+00  0.61977379D-02  0.22383458D-01  0.00000000D+00
 -0.00000000D+00  0.96287790D-02 -0.16555915D-01  0.00000000D+00  0.00000000D+00
  0.25029208D-02 -0.22194044D-02 -0.22194044D-02  0.00000000D+00 -0.00000000D+00
 -0.00000000D+00  0.77849084D-03  0.14412648D-02  0.23341100D-02  0.29932816D-02
  0.27154127D-02  0.13193209D-03  0.85555794D-03  0.22616854D-02 -0.27830213D-05
 -0.63033694D-01 -0.53639820D-01 -0.42219195D-01 -0.00000000D+00 -0.00000000D+00
 -0.00000000D+00 -0.00000000D+00 -0.00000000D+00 -0.00000000D+00 -0.78870075D-02
 -0.46503662D-02 -0.00000000D+00 -0.00000000D+00  0.61977379D-02 -0.22383458D-01
  0.00000000D+00 -0.00000000D+00  0.96287790D-02  0.16555915D-01 -0.00000000D+00
  0.00000000D+00  0.25029208D-02 -0.22194044D-02 -0.22194044D-02 -0.00000000D+00
  0.00000000D+00  0.00000000D+00
MO   13     MO 0.0        OCC NO =    0.0000000  ORB. ENERGY =    0.078291
  0.00000000D+00  0.00000000D+00  0.00000000D+00  0.00000000D+00  0.00000000D+00
  0.00000000D+00  0.00000000D+00  0.00000000D+00 -0.00000000D+00  0.00000000D+00
  0.00000000D+00  0.00000000D+00  0.19509595D-01  0.16602091D-01  0.13067287D-01
  0.72958061D-01  0.62085164D-01  0.48866414D-01  0.00000000D+00 -0.00000000D+00
  0.16849034D-02  0.63008658D-02 -0.00000000D+00  0.00000000D+00  0.72062540D-02
  0.26948503D-01  0.00000000D+00  0.00000000D+00 -0.21053427D-02 -0.78731380D-02
  0.00000000D+00  0.00000000D+00  0.00000000D+00  0.10024902D-02  0.37489160D-02
 -0.00000000D+00 -0.00000000D+00 -0.00000000D+00 -0.00000000D+00 -0.00000000D+00
 -0.00000000D+00 -0.00000000D+00 -0.00000000D+00 -0.00000000D+00  0.00000000D+00
 -0.00000000D+00 -0.00000000D+00 -0.00000000D+00  0.19509595D-01  0.16602091D-01
  0.13067287D-01  0.72958061D-01  0.62085164D-01  0.48866414D-01 -0.00000000D+00
 -0.00000000D+00  0.16849034D-02  0.63008658D-02  0.00000000D+00 -0.00000000D+00
  0.72062540D-02  0.26948503D-01 -0.00000000D+00  0.00000000D+00 -0.21053427D-02
 -0.78731380D-02 -0.00000000D+00 -0.00000000D+00 -0.00000000D+00 -0.10024902D-02
 -0.37489160D-02  0.00000000D+00
MO   14     MO 0.0        OCC NO =    0.0000000  ORB. ENERGY =    0.078291
 -0.00000000D+00 -0.00000000D+00 -0.00000000D+00 -0.00000000D+00 -0.00000000D+00
 -0.00000000D+00 -0.00000000D+00 -0.00000000D+00  0.00000000D+00  0.00000000D+00
  0.00000000D+00  0.00000000D+00 -0.72958061D-01 -0.62085164D-01 -0.48866414D-01
  0.19509595D-01  0.16602091D-01  0.13067287D-01 -0.00000000D+00  0.00000000D+00
 -0.63008658D-02  0.16849034D-02  0.00000000D+00  0.00000000D+00 -0.26948503D-01
  0.72062540D-02 -0.00000000D+00 -0.00000000D+00  0.78731380D-02 -0.21053427D-02
 -0.00000000D+00 -0.00000000D+00 -0.00000000D+00 -0.37489160D-02  0.10024902D-02
  0.00000000D+00  0.00000000D+00  0.00000000D+00  0.00000000D+00  0.00000000D+00
  0.00000000D+00  0.00000000D+00  0.00000000D+00  0.00000000D+00 -0.00000000D+00
 -0.00000000D+00 -0.00000000D+00 -0.00000000D+00 -0.72958061D-01 -0.62085164D-01
 -0.48866414D-01  0.19509595D-01  0.16602091D-01  0.13067287D-01  0.00000000D+00
  0.00000000D+00 -0.63008658D-02  0.16849034D-02 -0.00000000D+00 -0.00000000D+00
 -0.26948503D-01  0.72062540D-02  0.00000000D+00 -0.00000000D+00  0.78731380D-02
 -0.21053427D-02  0.00000000D+00  0.00000000D+00  0.00000000D+00  0.37489160D-02
 -0.10024902D-02 -0.00000000D+00
MO   15     MO 0.0        OCC NO =    0.0000000  ORB. ENERGY =    0.105566
  0.69547045D-02  0.12875644D-01  0.20851942D-01  0.26740699D-01  0.24258336D-01
  0.11786249D-02  0.14402038D-01  0.38072090D-01 -0.46847999D-04  0.15521525D-01
  0.13208361D-01  0.10396127D-01  0.00000000D+00  0.00000000D+00  0.00000000D+00
 -0.00000000D+00 -0.00000000D+00 -0.00000000D+00  0.13799965D-01 -0.67967718D-02
 -0.00000000D+00 -0.00000000D+00 -0.14461342D+00  0.59177522D-02  0.00000000D+00
 -0.00000000D+00  0.81779130D+00  0.76752060D-01 -0.00000000D+00  0.00000000D+00
  0.35164953D-02  0.64715950D-02  0.64715950D-02 -0.00000000D+00  0.00000000D+00
  0.00000000D+00 -0.69547045D-02 -0.12875644D-01 -0.20851942D-01 -0.26740699D-01
 -0.24258336D-01 -0.11786249D-02 -0.14402038D-01 -0.38072090D-01  0.46847999D-04
  0.15521525D-01  0.13208361D-01  0.10396127D-01 -0.00000000D+00 -0.00000000D+00
 -0.00000000D+00  0.00000000D+00  0.00000000D+00  0.00000000D+00 -0.13799965D-01
 -0.67967718D-02 -0.00000000D+00 -0.00000000D+00  0.14461342D+00  0.59177522D-02
 -0.00000000D+00  0.00000000D+00 -0.81779130D+00  0.76752060D-01  0.00000000D+00
  0.00000000D+00 -0.35164953D-02 -0.64715950D-02 -0.64715950D-02  0.00000000D+00
  0.00000000D+00 -0.00000000D+00
MO   16     MO 0.0        OCC NO =    0.0000000  ORB. ENERGY =    0.127923
 -0.00000000D+00 -0.00000000D+00 -0.00000000D+00 -0.00000000D+00 -0.00000000D+00
 -0.00000000D+00 -0.00000000D+00 -0.00000000D+00  0.00000000D+00 -0.00000000D+00
 -0.00000000D+00 -0.00000000D+00  0.11687097D-01  0.99453755D-02  0.78278739D-02
 -0.98591020D-01 -0.83898059D-01 -0.66035055D-01 -0.00000000D+00  0.00000000D+00
  0.16016757D-02 -0.13511560D-01  0.00000000D+00 -0.00000000D+00  0.54712756D-02
 -0.46155070D-01 -0.00000000D+00 -0.00000000D+00 -0.18394572D-02  0.15517455D-01
  0.00000000D+00 -0.00000000D+00 -0.00000000D+00 -0.15737449D-03  0.13275955D-02
 -0.00000000D+00  0.00000000D+00  0.00000000D+00  0.00000000D+00  0.00000000D+00
  0.00000000D+00  0.00000000D+00  0.00000000D+00  0.00000000D+00 -0.00000000D+00
 -0.00000000D+00 -0.00000000D+00 -0.00000000D+00 -0.11687097D-01 -0.99453755D-02
 -0.78278739D-02  0.98591020D-01  0.83898059D-01  0.66035055D-01  0.00000000D+00
  0.00000000D+00 -0.16016757D-02  0.13511560D-01 -0.00000000D+00 -0.00000000D+00
 -0.54712756D-02  0.46155070D-01  0.00000000D+00 -0.00000000D+00  0.18394572D-02
 -0.15517455D-01  0.00000000D+00  0.00000000D+00  0.00000000D+00 -0.15737449D-03
  0.13275955D-02  0.00000000D+00
MO   17     MO 0.0        OCC NO =    0.0000000  ORB. ENERGY =    0.127923
  0.00000000D+00  0.00000000D+00  0.00000000D+00  0.00000000D+00  0.00000000D+00
  0.00000000D+00  0.00000000D+00  0.00000000D+00 -0.00000000D+00  0.00000000D+00
  0.00000000D+00  0.00000000D+00 -0.98591020D-01 -0.83898059D-01 -0.66035055D-01
 -0.11687097D-01 -0.99453755D-02 -0.78278739D-02  0.00000000D+00 -0.00000000D+00
 -0.13511560D-01 -0.16016757D-02 -0.00000000D+00  0.00000000D+00 -0.46155070D-01
 -0.54712756D-02  0.00000000D+00  0.00000000D+00  0.15517455D-01  0.18394572D-02
  0.00000000D+00  0.00000000D+00  0.00000000D+00  0.13275955D-02  0.15737449D-03
 -0.00000000D+00 -0.00000000D+00 -0.00000000D+00 -0.00000000D+00 -0.00000000D+00
 -0.00000000D+00 -0.00000000D+00 -0.00000000D+00 -0.00000000D+00  0.00000000D+00
  0.00000000D+00  0.00000000D+00  0.00000000D+00  0.98591020D-01  0.83898059D-01
  0.66035055D-01  0.11687097D-01  0.99453755D-02  0.78278739D-02 -0.00000000D+00
 -0.00000000D+00  0.13511560D-01  0.16016757D-02  0.00000000D+00  0.00000000D+00
  0.46155070D-01  0.54712756D-02 -0.00000000D+00  0.00000000D+00 -0.15517455D-01
 -0.18394572D-02  0.00000000D+00 -0.00000000D+00 -0.00000000D+00  0.13275955D-02
  0.15737449D-03  0.00000000D+00
MO   18     MO 0.0        OCC NO =    0.0000000  ORB. ENERGY =    0.203208
  0.14757757D-01  0.27321882D-01  0.44247441D-01  0.56743277D-01  0.51475749D-01
  0.25010206D-02  0.24666369D-01  0.65206065D-01 -0.80236564D-04 -0.65528816D-01
 -0.55763095D-01 -0.43890396D-01 -0.00000000D+00 -0.00000000D+00 -0.00000000D+00
 -0.00000000D+00 -0.00000000D+00 -0.00000000D+00 -0.13054270D-01  0.78207851D-02
 -0.00000000D+00  0.00000000D+00 -0.26354931D+00 -0.11247608D+00 -0.00000000D+00
 -0.00000000D+00  0.14428778D+00  0.20105127D-01  0.00000000D+00 -0.00000000D+00
  0.42950543D-02  0.13902765D-02  0.13902765D-02 -0.00000000D+00 -0.00000000D+00
  0.00000000D+00 -0.14757757D-01 -0.27321882D-01 -0.44247441D-01 -0.56743277D-01
 -0.51475749D-01 -0.25010206D-02 -0.24666369D-01 -0.65206065D-01  0.80236564D-04
 -0.65528816D-01 -0.55763095D-01 -0.43890396D-01 -0.00000000D+00 -0.00000000D+00
 -0.00000000D+00  0.00000000D+00  0.00000000D+00  0.00000000D+00  0.13054270D-01
  0.78207851D-02 -0.00000000D+00 -0.00000000D+00  0.26354931D+00 -0.11247608D+00
  0.00000000D+00  0.00000000D+00 -0.14428778D+00  0.20105127D-01 -0.00000000D+00
  0.00000000D+00 -0.42950543D-02 -0.13902765D-02 -0.13902765D-02 -0.00000000D+00
  0.00000000D+00 -0.00000000D+00
MO   19     MO 0.0        OCC NO =    0.0000000  ORB. ENERGY =    0.299452
 -0.95408583D-02 -0.17663539D-01 -0.28605877D-01 -0.36684408D-01 -0.33278962D-01
 -0.16169045D-02 -0.72603059D-02 -0.19192771D-01  0.23616853D-04  0.51514750D-01
  0.43837537D-01  0.34503947D-01  0.00000000D+00  0.00000000D+00  0.00000000D+00
 -0.00000000D+00 -0.00000000D+00 -0.00000000D+00  0.12806596D+00  0.10520246D+00
  0.00000000D+00 -0.00000000D+00 -0.79369295D-01 -0.52031750D-01 -0.00000000D+00
  0.00000000D+00  0.85743994D-02  0.10086066D-01  0.00000000D+00 -0.00000000D+00
  0.20994090D-01  0.11248285D-01  0.11248285D-01 -0.00000000D+00 -0.00000000D+00
 -0.00000000D+00 -0.95408583D-02 -0.17663539D-01 -0.28605877D-01 -0.36684408D-01
 -0.33278962D-01 -0.16169045D-02 -0.72603059D-02 -0.19192771D-01  0.23616853D-04
 -0.51514750D-01 -0.43837537D-01 -0.34503947D-01  0.00000000D+00  0.00000000D+00
  0.00000000D+00 -0.00000000D+00 -0.00000000D+00 -0.00000000D+00  0.12806596D+00
 -0.10520246D+00  0.00000000D+00 -0.00000000D+00 -0.79369295D-01  0.52031750D-01
 -0.00000000D+00  0.00000000D+00  0.85743994D-02 -0.10086066D-01  0.00000000D+00
 -0.00000000D+00  0.20994090D-01  0.11248285D-01  0.11248285D-01  0.00000000D+00
  0.00000000D+00  0.00000000D+00
MO   20     MO 0.0        OCC NO =    0.0000000  ORB. ENERGY =    0.327737
 -0.27057033D-01 -0.50092238D-01 -0.81123744D-01 -0.10403375D+00 -0.94376203D-01
 -0.45853986D-02 -0.29092387D-01 -0.76906338D-01  0.94633840D-04 -0.50662825D-01
 -0.43112574D-01 -0.33933339D-01 -0.00000000D+00 -0.00000000D+00 -0.00000000D+00
  0.00000000D+00  0.00000000D+00  0.00000000D+00  0.20686578D+00 -0.63705905D-01
  0.00000000D+00  0.00000000D+00 -0.16697037D+00  0.24952691D-01 -0.00000000D+00
 -0.00000000D+00  0.29895330D-01 -0.18019826D-02  0.00000000D+00  0.00000000D+00
  0.27160751D-01  0.23163506D-01  0.23163506D-01  0.00000000D+00  0.00000000D+00
  0.00000000D+00 -0.27057033D-01 -0.50092238D-01 -0.81123744D-01 -0.10403375D+00
 -0.94376203D-01 -0.45853986D-02 -0.29092387D-01 -0.76906338D-01  0.94633840D-04
  0.50662825D-01  0.43112574D-01  0.33933339D-01  0.00000000D+00  0.00000000D+00
  0.00000000D+00  0.00000000D+00  0.00000000D+00  0.00000000D+00  0.20686578D+00
  0.63705905D-01  0.00000000D+00  0.00000000D+00 -0.16697037D+00 -0.24952691D-01
 -0.00000000D+00 -0.00000000D+00  0.29895330D-01  0.18019826D-02  0.00000000D+00
  0.00000000D+00  0.27160751D-01  0.23163506D-01  0.23163506D-01  0.00000000D+00
 -0.00000000D+00 -0.00000000D+00
MO   21     MO 0.0        OCC NO =    0.0000000  ORB. ENERGY =    0.332560
  0.00000000D+00  0.00000000D+00  0.00000000D+00  0.00000000D+00  0.00000000D+00
  0.00000000D+00  0.00000000D+00  0.00000000D+00 -0.00000000D+00 -0.00000000D+00
 -0.00000000D+00 -0.00000000D+00  0.84948844D-01  0.72288968D-01  0.56897693D-01
  0.52815400D-03  0.44944352D-03  0.35375106D-03 -0.00000000D+00  0.00000000D+00
  0.13828921D+00  0.85978858D-03  0.00000000D+00  0.00000000D+00 -0.45776098D-01
 -0.28460466D-03 -0.00000000D+00 -0.00000000D+00  0.50386906D-02  0.31327189D-04
 -0.00000000D+00 -0.00000000D+00 -0.00000000D+00  0.15323738D-01  0.95273024D-04
 -0.00000000D+00 -0.00000000D+00 -0.00000000D+00 -0.00000000D+00 -0.00000000D+00
 -0.00000000D+00 -0.00000000D+00 -0.00000000D+00 -0.00000000D+00  0.00000000D+00
  0.00000000D+00  0.00000000D+00  0.00000000D+00  0.84948844D-01  0.72288968D-01
  0.56897693D-01  0.52815400D-03  0.44944352D-03  0.35375106D-03  0.00000000D+00
  0.00000000D+00  0.13828921D+00  0.85978858D-03 -0.00000000D+00  0.00000000D+00
 -0.45776098D-01 -0.28460466D-03  0.00000000D+00  0.00000000D+00  0.50386906D-02
  0.31327189D-04  0.00000000D+00  0.00000000D+00  0.00000000D+00 -0.15323738D-01
 -0.95273024D-04 -0.00000000D+00
MO   22     MO 0.0        OCC NO =    0.0000000  ORB. ENERGY =    0.332560
  0.00000000D+00  0.00000000D+00  0.00000000D+00  0.00000000D+00  0.00000000D+00
  0.00000000D+00  0.00000000D+00  0.00000000D+00 -0.00000000D+00  0.00000000D+00
  0.00000000D+00  0.00000000D+00 -0.52815400D-03 -0.44944352D-03 -0.35375106D-03
  0.84948844D-01  0.72288968D-01  0.56897693D-01 -0.00000000D+00  0.00000000D+00
 -0.85978858D-03  0.13828921D+00  0.00000000D+00 -0.00000000D+00  0.28460466D-03
 -0.45776098D-01  0.00000000D+00  0.00000000D+00 -0.31327189D-04  0.50386906D-02
 -0.00000000D+00 -0.00000000D+00 -0.00000000D+00 -0.95273024D-04  0.15323738D-01
 -0.00000000D+00  0.00000000D+00  0.00000000D+00  0.00000000D+00  0.00000000D+00
  0.00000000D+00  0.00000000D+00  0.00000000D+00  0.00000000D+00 -0.00000000D+00
 -0.00000000D+00 -0.00000000D+00 -0.00000000D+00 -0.52815400D-03 -0.44944352D-03
 -0.35375106D-03  0.84948844D-01  0.72288968D-01  0.56897693D-01 -0.00000000D+00
 -0.00000000D+00 -0.85978858D-03  0.13828921D+00 -0.00000000D+00  0.00000000D+00
  0.28460466D-03 -0.45776098D-01 -0.00000000D+00  0.00000000D+00 -0.31327189D-04
  0.50386906D-02 -0.00000000D+00 -0.00000000D+00 -0.00000000D+00  0.95273024D-04
 -0.15323738D-01 -0.00000000D+00
MO   23     MO 0.0        OCC NO =    0.0000000  ORB. ENERGY =    0.360185
  0.00000000D+00  0.00000000D+00  0.00000000D+00  0.00000000D+00  0.00000000D+00
  0.00000000D+00  0.00000000D+00  0.00000000D+00 -0.00000000D+00  0.00000000D+00
  0.00000000D+00  0.00000000D+00 -0.10387262D+00 -0.88392543D-01 -0.69572605D-01
  0.21124794D-01  0.17976578D-01  0.14149128D-01 -0.00000000D+00  0.00000000D+00
 -0.14010945D+00  0.28494357D-01  0.00000000D+00  0.00000000D+00  0.64864701D-01
 -0.13191673D-01 -0.00000000D+00 -0.00000000D+00 -0.10877062D-01  0.22120914D-02