[Molden Format]
[Atoms] AU
BE       1       4     0.00000000     0.00000000     0.00000000
BE       2       4     4.63600000     0.00000000     0.00000000
[GTO]
  1 0
s  6 1.00
   1.6828000000E+03   2.2857400000E-03
   2.5171500000E+02   1.7593800000E-02
   5.7411600000E+01   8.6331500000E-02
   1.6517100000E+01   2.8183500000E-01
   4.8536400000E+00   6.4059400000E-01
   6.2686300000E-01   1.4446700000E-01
s  3 1.00
   8.3093800000E+00   1.0862100000E-01
   1.7407500000E+00   9.2730100000E-01
   4.8581600000E-01  -2.9716900000E-03
p  3 1.00
   8.3093800000E+00   3.6134400000E-02
   1.7407500000E+00   2.1695800000E-01
   4.8581600000E-01   8.4183900000E-01
s  1 1.00
   1.6361300000E-01   1.0000000000E+00
p  1 1.00
   1.6361300000E-01   1.0000000000E+00
s  1 1.00
   5.6728500000E-02   1.0000000000E+00
p  1 1.00
   5.6728500000E-02   1.0000000000E+00
s  1 1.00
   2.0700000000E-02   1.0000000000E+00
p  1 1.00
   2.0700000000E-02   1.0000000000E+00
d  1 1.00
   2.5500000000E-01   1.0000000000E+00
 
  2 0
s  6 1.00
   1.6828000000E+03   2.2857400000E-03
   2.5171500000E+02   1.7593800000E-02
   5.7411600000E+01   8.6331500000E-02
   1.6517100000E+01   2.8183500000E-01
   4.8536400000E+00   6.4059400000E-01
   6.2686300000E-01   1.4446700000E-01
s  3 1.00
   8.3093800000E+00   1.0862100000E-01
   1.7407500000E+00   9.2730100000E-01
   4.8581600000E-01  -2.9716900000E-03
p  3 1.00
   8.3093800000E+00   3.6134400000E-02
   1.7407500000E+00   2.1695800000E-01
   4.8581600000E-01   8.4183900000E-01
s  1 1.00
   1.6361300000E-01   1.0000000000E+00
p  1 1.00
   1.6361300000E-01   1.0000000000E+00
s  1 1.00
   5.6728500000E-02   1.0000000000E+00
p  1 1.00
   5.6728500000E-02   1.0000000000E+00
s  1 1.00
   2.0700000000E-02   1.0000000000E+00
p  1 1.00
   2.0700000000E-02   1.0000000000E+00
d  1 1.00
   2.5500000000E-01   1.0000000000E+00
 
 
[MO]
Ene=    -4.73138E+00
Spin= Alpha
Occup=   2.0000000000
   1       0.42156621
   2       0.31551653
   3       0.00024257
   4       0.00000000
   5       0.00000000
   6      -0.00277357
   7       0.00003489
   8      -0.00000000
   9       0.00000000
  10       0.00095672
  11       0.00002716
  12       0.00000000
  13      -0.00000000
  14      -0.00024535
  15      -0.00007717
  16      -0.00000000
  17       0.00000000
  18       0.00048405
  19       0.00028510
  20       0.00028510
  21       0.00000000
  22      -0.00000000
  23      -0.00000000
  24       0.42156621
  25       0.31551653
  26      -0.00024257
  27      -0.00000000
  28       0.00000000
  29      -0.00277357
  30      -0.00003489
  31       0.00000000
  32      -0.00000000
  33       0.00095672
  34      -0.00002716
  35      -0.00000000
  36       0.00000000
  37      -0.00024535
  38       0.00007717
  39       0.00000000
  40      -0.00000000
  41       0.00048405
  42       0.00028510
  43       0.00028510
  44      -0.00000000
  45      -0.00000000
  46      -0.00000000
Ene=    -4.73135E+00
Spin= Alpha
Occup=   2.0000000000
   1       0.42162158
   2       0.31559533
   3       0.00024754
   4       0.00000000
   5       0.00000000
   6      -0.00321239
   7      -0.00046437
   8       0.00000000
   9      -0.00000000
  10       0.00197116
  11       0.00056405
  12       0.00000000
  13       0.00000000
  14      -0.00293462
  15      -0.00091986
  16      -0.00000000
  17      -0.00000000
  18       0.00013804
  19       0.00028068
  20       0.00028068
  21      -0.00000000
  22      -0.00000000
  23       0.00000000
  24      -0.42162158
  25      -0.31559533
  26       0.00024754
  27       0.00000000
  28      -0.00000000
  29       0.00321239
  30      -0.00046437
  31       0.00000000
  32      -0.00000000
  33      -0.00197116
  34       0.00056405
  35      -0.00000000
  36      -0.00000000
  37       0.00293462
  38      -0.00091986
  39       0.00000000
  40      -0.00000000
  41      -0.00013804
  42      -0.00028068
  43      -0.00028068
  44       0.00000000
  45      -0.00000000
  46      -0.00000000
Ene=    -3.95680E-01
Spin= Alpha
Occup=   2.0000000000
   1      -0.07734027
   2      -0.12876462
   3       0.04068564
   4       0.00000000
   5      -0.00000000
   6       0.40115731
   7       0.07419447
   8       0.00000000
   9      -0.00000000
  10       0.23445688
  11       0.00533494
  12      -0.00000000
  13       0.00000000
  14      -0.00315653
  15      -0.00330146
  16      -0.00000000
  17      -0.00000000
  18       0.01741727
  19      -0.00753639
  20      -0.00753639
  21      -0.00000000
  22      -0.00000000
  23       0.00000000
  24      -0.07734027
  25      -0.12876462
  26      -0.04068564
  27       0.00000000
  28      -0.00000000
  29       0.40115731
  30      -0.07419447
  31      -0.00000000
  32       0.00000000
  33       0.23445688
  34      -0.00533494
  35       0.00000000
  36      -0.00000000
  37      -0.00315653
  38       0.00330146
  39      -0.00000000
  40       0.00000000
  41       0.01741727
  42      -0.00753639
  43      -0.00753639
  44      -0.00000000
  45      -0.00000000
  46       0.00000000
Ene=    -2.42959E-01
Spin= Alpha
Occup=   2.0000000000
   1      -0.07553607
   2      -0.12887498
   3      -0.04127218
   4       0.00000000
   5       0.00000000
   6       0.40120204
   7      -0.06033959
   8       0.00000000
   9       0.00000000
  10       0.51044998
  11      -0.01105044
  12      -0.00000000
  13      -0.00000000
  14       0.06665801
  15      -0.00333429
  16       0.00000000
  17       0.00000000
  18      -0.00783848
  19       0.00383766
  20       0.00383766
  21      -0.00000000
  22       0.00000000
  23      -0.00000000
  24       0.07553607
  25       0.12887498
  26      -0.04127218
  27      -0.00000000
  28      -0.00000000
  29      -0.40120204
  30      -0.06033959
  31      -0.00000000
  32       0.00000000
  33      -0.51044998
  34      -0.01105044
  35       0.00000000
  36       0.00000000
  37      -0.06665801
  38      -0.00333429
  39       0.00000000
  40       0.00000000
  41       0.00783848
  42      -0.00383766
  43      -0.00383766
  44       0.00000000
  45      -0.00000000
  46      -0.00000000
Ene=     7.83320E-03
Spin= Alpha
Occup=   0.0000000000
   1       0.00124865
   2       0.00066304
   3       0.10926030
   4      -0.00000000
   5       0.00000000
   6      -0.02156434
   7       0.20955381
   8      -0.00000000
   9       0.00000000
  10       0.07866130
  11       0.17028932
  12       0.00000000
  13       0.00000000
  14      -0.46679151
  15       0.33302397
  16      -0.00000000
  17       0.00000000
  18       0.00645553
  19      -0.01196401
  20      -0.01196401
  21       0.00000000
  22       0.00000000
  23      -0.00000000
  24       0.00124865
  25       0.00066304
  26      -0.10926030
  27      -0.00000000
  28       0.00000000
  29      -0.02156434
  30      -0.20955381
  31       0.00000000
  32       0.00000000
  33       0.07866130
  34      -0.17028932
  35      -0.00000000
  36       0.00000000
  37      -0.46679151
  38      -0.33302397
  39       0.00000000
  40       0.00000000
  41       0.00645553
  42      -0.01196401
  43      -0.01196401
  44       0.00000000
  45      -0.00000000
  46      -0.00000000
Ene=     1.13127E-02
Spin= Alpha
Occup=   0.0000000000
   1       0.00000000
   2       0.00000000
   3      -0.00000000
   4       0.03359431
   5       0.07109904
   6      -0.00000000
   7      -0.00000000
   8       0.07026155
   9       0.14870162
  10      -0.00000000
  11      -0.00000000
  12       0.05040756
  13       0.10668262
  14      -0.00000000
  15      -0.00000000
  16       0.14471416
  17       0.30627320
  18      -0.00000000
  19       0.00000000
  20       0.00000000
  21       0.00620001
  22       0.01312172
  23       0.00000000
  24      -0.00000000
  25       0.00000000
  26       0.00000000
  27       0.03359431
  28       0.07109904
  29       0.00000000
  30       0.00000000
  31       0.07026155
  32       0.14870162
  33      -0.00000000
  34       0.00000000
  35       0.05040756
  36       0.10668262
  37       0.00000000
  38      -0.00000000
  39       0.14471416
  40       0.30627320
  41       0.00000000
  42       0.00000000
  43       0.00000000
  44      -0.00620001
  45      -0.01312172
  46       0.00000000
Ene=     1.13127E-02
Spin= Alpha
Occup=   0.0000000000
   1       0.00000000
   2       0.00000000
   3      -0.00000000
   4      -0.07109904
   5       0.03359431
   6      -0.00000000
   7      -0.00000000
   8      -0.14870162
   9       0.07026155
  10       0.00000000
  11      -0.00000000
  12      -0.10668262
  13       0.05040756
  14      -0.00000000
  15      -0.00000000
  16      -0.30627320
  17       0.14471416
  18      -0.00000000
  19       0.00000000
  20       0.00000000
  21      -0.01312172
  22       0.00620001
  23       0.00000000
  24      -0.00000000
  25       0.00000000
  26       0.00000000
  27      -0.07109904
  28       0.03359431
  29       0.00000000
  30       0.00000000
  31      -0.14870162
  32       0.07026155
  33      -0.00000000
  34       0.00000000
  35      -0.10668262
  36       0.05040756
  37       0.00000000
  38      -0.00000000
  39      -0.30627320
  40       0.14471416
  41       0.00000000
  42       0.00000000
  43       0.00000000
  44       0.01312172
  45      -0.00620001
  46      -0.00000000
Ene=     4.88711E-02
Spin= Alpha
Occup=   0.0000000000
   1      -0.01819549
   2      -0.03111843
   3      -0.01294609
   4       0.00000000
   5       0.00000000
   6       0.12433061
   7       0.05514017
   8       0.00000000
   9       0.00000000
  10      -0.23357436
  11      -0.49916145
  12       0.00000000
  13       0.00000000
  14       7.77657662
  15       3.53475178
  16       0.00000000
  17       0.00000000
  18      -0.00814478
  19       0.00876294
  20       0.00876294
  21      -0.00000000
  22       0.00000000
  23      -0.00000000
  24       0.01819549
  25       0.03111843
  26      -0.01294609
  27      -0.00000000
  28       0.00000000
  29      -0.12433061
  30       0.05514017
  31      -0.00000000
  32      -0.00000000
  33       0.23357436
  34      -0.49916145
  35       0.00000000
  36       0.00000000
  37      -7.77657662
  38       3.53475178
  39      -0.00000000
  40      -0.00000000
  41       0.00814478
  42      -0.00876294
  43      -0.00876294
  44      -0.00000000
  45      -0.00000000
  46       0.00000000
Ene=     5.53700E-02
Spin= Alpha
Occup=   0.0000000000
   1       0.00000000
   2       0.00000000
   3       0.00000000
   4       0.00172972
   5       0.03383786
   6      -0.00000000
   7      -0.00000000
   8       0.00653254
   9       0.12779377
  10      -0.00000000
  11       0.00000000
  12      -0.00680336
  13      -0.13309173
  14      -0.00000000
  15      -0.00000000
  16       0.08314300
  17       1.62649755
  18       0.00000000
  19       0.00000000
  20       0.00000000
  21      -0.00048683
  22      -0.00952375
  23      -0.00000000
  24      -0.00000000
  25      -0.00000000
  26       0.00000000
  27      -0.00172972
  28      -0.03383786
  29       0.00000000
  30      -0.00000000
  31      -0.00653254
  32      -0.12779377
  33       0.00000000
  34       0.00000000
  35       0.00680336
  36       0.13309173
  37       0.00000000
  38      -0.00000000
  39      -0.08314300
  40      -1.62649755
  41      -0.00000000
  42      -0.00000000
  43      -0.00000000
  44      -0.00048683
  45      -0.00952375
  46       0.00000000
Ene=     5.53700E-02
Spin= Alpha
Occup=   0.0000000000
   1       0.00000000
   2       0.00000000
   3       0.00000000
   4       0.03383786
   5      -0.00172972
   6      -0.00000000
   7      -0.00000000
   8       0.12779377
   9      -0.00653254
  10      -0.00000000
  11       0.00000000
  12      -0.13309173
  13       0.00680336
  14      -0.00000000
  15      -0.00000000
  16       1.62649755
  17      -0.08314300
  18       0.00000000
  19       0.00000000
  20       0.00000000
  21      -0.00952375
  22       0.00048683
  23      -0.00000000
  24      -0.00000000
  25      -0.00000000
  26       0.00000000
  27      -0.03383786
  28       0.00172972
  29       0.00000000
  30      -0.00000000
  31      -0.12779377
  32       0.00653254
  33       0.00000000
  34       0.00000000
  35       0.13309173
  36      -0.00680336
  37       0.00000000
  38      -0.00000000
  39      -1.62649755
  40       0.08314300
  41      -0.00000000
  42      -0.00000000
  43      -0.00000000
  44      -0.00952375
  45       0.00048683
  46      -0.00000000
Ene=     6.34646E-02
Spin= Alpha
Occup=   0.0000000000
   1       0.02072310
   2       0.04537000
   3       0.06816565
   4      -0.00000000
   5       0.00000000
   6       0.00989998
   7       0.09119021
   8      -0.00000000
   9       0.00000000
  10      -1.18465680
  11       0.27457855
  12       0.00000000
  13       0.00000000
  14       1.00347719
  15       0.23398652
  16      -0.00000000
  17       0.00000000
  18       0.03357168
  19       0.03557397
  20       0.03557397
  21       0.00000000
  22       0.00000000
  23       0.00000000
  24       0.02072310
  25       0.04537000
  26      -0.06816565
  27       0.00000000
  28      -0.00000000
  29       0.00989998
  30      -0.09119021
  31       0.00000000
  32      -0.00000000
  33      -1.18465680
  34      -0.27457855
  35      -0.00000000
  36       0.00000000
  37       1.00347719
  38      -0.23398652
  39       0.00000000
  40      -0.00000000
  41       0.03357168
  42       0.03557397
  43       0.03557397
  44      -0.00000000
  45      -0.00000000
  46      -0.00000000
Ene=     7.66646E-02
Spin= Alpha
Occup=   0.0000000000
   1       0.00181883
   2       0.00225813
   3       0.08674631
   4       0.00000000
   5      -0.00000000
   6      -0.04301687
   7       0.03135269
   8      -0.00000000
   9      -0.00000000
  10       0.07481215
  11       0.56719902
  12       0.00000000
  13      -0.00000000
  14       0.24756165
  15      -1.47927927
  16       0.00000000
  17       0.00000000
  18       0.01661852
  19      -0.01473607
  20      -0.01473607
  21       0.00000000
  22      -0.00000000
  23      -0.00000000
  24       0.00181883
  25       0.00225813
  26      -0.08674631
  27      -0.00000000
  28      -0.00000000
  29      -0.04301687
  30      -0.03135269
  31      -0.00000000
  32      -0.00000000
  33       0.07481215
  34      -0.56719902
  35       0.00000000
  36      -0.00000000
  37       0.24756165
  38       1.47927927
  39      -0.00000000
  40       0.00000000
  41       0.01661852
  42      -0.01473607
  43      -0.01473607
  44      -0.00000000
  45       0.00000000
  46       0.00000000
Ene=     7.82906E-02
Spin= Alpha
Occup=   0.0000000000
   1       0.00000000
   2       0.00000000
   3       0.00000000
   4       0.02684890
   5       0.10040412
   6       0.00000000
   7      -0.00000000
   8       0.01135959
   9       0.04248033
  10      -0.00000000
  11       0.00000000
  12       0.18260718
  13       0.68287770
  14       0.00000000
  15       0.00000000
  16      -0.18811342
  17      -0.70346881
  18       0.00000000
  19       0.00000000
  20       0.00000000
  21       0.00384295
  22       0.01437111
  23      -0.00000000
  24      -0.00000000
  25      -0.00000000
  26      -0.00000000
  27       0.02684890
  28       0.10040412
  29      -0.00000000
  30      -0.00000000
  31       0.01135959
  32       0.04248033
  33       0.00000000
  34      -0.00000000
  35       0.18260718
  36       0.68287770
  37      -0.00000000
  38       0.00000000
  39      -0.18811342
  40      -0.70346881
  41      -0.00000000
  42      -0.00000000
  43      -0.00000000
  44      -0.00384295
  45      -0.01437111
  46       0.00000000
Ene=     7.82906E-02
Spin= Alpha
Occup=   0.0000000000
   1      -0.00000000
   2      -0.00000000
   3       0.00000000
   4      -0.10040412
   5       0.02684890
   6      -0.00000000
   7       0.00000000
   8      -0.04248033
   9       0.01135959
  10       0.00000000
  11       0.00000000
  12      -0.68287770
  13       0.18260718
  14      -0.00000000
  15      -0.00000000
  16       0.70346881
  17      -0.18811342
  18      -0.00000000
  19      -0.00000000
  20      -0.00000000
  21      -0.01437111
  22       0.00384295
  23       0.00000000
  24       0.00000000
  25       0.00000000
  26      -0.00000000
  27      -0.10040412
  28       0.02684890
  29       0.00000000
  30       0.00000000
  31      -0.04248033
  32       0.01135959
  33      -0.00000000
  34      -0.00000000
  35      -0.68287770
  36       0.18260718
  37       0.00000000
  38      -0.00000000
  39       0.70346881
  40      -0.18811342
  41       0.00000000
  42       0.00000000
  43       0.00000000
  44       0.01437111
  45      -0.00384295
  46      -0.00000000
Ene=     1.05566E-01
Spin= Alpha
Occup=   0.0000000000
   1       0.01624865
   2       0.03801224
   3       0.02136056
   4       0.00000000
   5      -0.00000000
   6       0.07526699
   7      -0.04582372
   8      -0.00000000
   9      -0.00000000
  10      -1.74561123
  11       0.14995642
  12       0.00000000
  13      -0.00000000
  14      21.02590200
  15       6.85783486
  16      -0.00000000
  17       0.00000000
  18       0.02334830
  19       0.04296913
  20       0.04296913
  21      -0.00000000
  22       0.00000000
  23       0.00000000
  24      -0.01624865
  25      -0.03801224
  26       0.02136056
  27      -0.00000000
  28       0.00000000
  29      -0.07526699
  30      -0.04582372
  31      -0.00000000
  32      -0.00000000
  33       1.74561123
  34       0.14995642
  35      -0.00000000
  36       0.00000000
  37     -21.02590200
  38       6.85783486
  39       0.00000000
  40       0.00000000
  41      -0.02334830
  42      -0.04296913
  43      -0.04296913
  44       0.00000000
  45       0.00000000
  46      -0.00000000
Ene=     1.27923E-01
Spin= Alpha
Occup=   0.0000000000
   1      -0.00000000
   2      -0.00000000
   3      -0.00000000
   4       0.01608366
   5      -0.13567993
   6      -0.00000000
   7       0.00000000
   8       0.01079847
   9      -0.09109471
  10       0.00000000
  11      -0.00000000
  12       0.13864266
  13      -1.16957400
  14      -0.00000000
  15      -0.00000000
  16      -0.16435642
  17       1.38649234
  18       0.00000000
  19      -0.00000000
  20      -0.00000000
  21      -0.00060328
  22       0.00508921
  23      -0.00000000
  24       0.00000000
  25       0.00000000
  26      -0.00000000
  27      -0.01608366
  28       0.13567993
  29       0.00000000
  30       0.00000000
  31      -0.01079847
  32       0.09109471
  33      -0.00000000
  34      -0.00000000
  35      -0.13864266
  36       1.16957400
  37       0.00000000
  38      -0.00000000
  39       0.16435642
  40      -1.38649234
  41       0.00000000
  42       0.00000000
  43       0.00000000
  44      -0.00060328
  45       0.00508921
  46       0.00000000
Ene=     1.27923E-01
Spin= Alpha
Occup=   0.0000000000
   1       0.00000000
   2       0.00000000
   3       0.00000000
   4      -0.13567993
   5      -0.01608366
   6       0.00000000
   7      -0.00000000
   8      -0.09109471
   9      -0.01079847
  10      -0.00000000
  11       0.00000000
  12      -1.16957400
  13      -0.13864266
  14       0.00000000
  15       0.00000000
  16       1.38649234
  17       0.16435642
  18       0.00000000
  19       0.00000000
  20       0.00000000
  21       0.00508921
  22       0.00060328
  23      -0.00000000
  24      -0.00000000
  25      -0.00000000
  26       0.00000000
  27       0.13567993
  28       0.01608366
  29      -0.00000000
  30      -0.00000000
  31       0.09109471
  32       0.01079847
  33       0.00000000
  34       0.00000000
  35       1.16957400
  36       0.13864266
  37      -0.00000000
  38       0.00000000
  39      -1.38649234
  40      -0.16435642
  41       0.00000000
  42      -0.00000000
  43      -0.00000000
  44       0.00508921
  45       0.00060328
  46       0.00000000
Ene=     2.03208E-01
Spin= Alpha
Occup=   0.0000000000
   1       0.03447934
   2       0.06510356
   3      -0.09018007
   4      -0.00000000
   5      -0.00000000
   6      -0.07119986
   7       0.05272760
   8      -0.00000000
   9       0.00000000
  10      -3.18127206
  11      -2.85015498
  12      -0.00000000
  13      -0.00000000
  14       3.70972498
  15       1.79640310
  16       0.00000000
  17      -0.00000000
  18       0.02851766
  19       0.00923095
  20       0.00923095
  21      -0.00000000
  22      -0.00000000
  23       0.00000000
  24      -0.03447934
  25      -0.06510356
  26      -0.09018007
  27      -0.00000000
  28       0.00000000
  29       0.07119986
  30       0.05272760
  31      -0.00000000
  32      -0.00000000
  33       3.18127206
  34      -2.85015498
  35       0.00000000
  36       0.00000000
  37      -3.70972498
  38       1.79640310
  39      -0.00000000
  40       0.00000000
  41      -0.02851766
  42      -0.00923095
  43      -0.00923095
  44      -0.00000000
  45       0.00000000
  46      -0.00000000
Ene=     2.99452E-01
Spin= Alpha
Occup=   0.0000000000
   1      -0.02229082
   2      -0.01916260
   3       0.07089406
   4       0.00000000
   5      -0.00000000
   6       0.69849013
   7       0.70927317
   8       0.00000000
   9      -0.00000000
  10      -0.95805723
  11      -1.31848963
  12      -0.00000000
  13       0.00000000
  14       0.22045292
  15       0.90119500
  16       0.00000000
  17      -0.00000000
  18       0.13939342
  19       0.07468468
  20       0.07468468
  21      -0.00000000
  22      -0.00000000
  23      -0.00000000
  24      -0.02229082
  25      -0.01916260
  26      -0.07089406
  27       0.00000000
  28      -0.00000000
  29       0.69849013
  30      -0.70927317
  31       0.00000000
  32      -0.00000000
  33      -0.95805723
  34       1.31848963
  35      -0.00000000
  36       0.00000000
  37       0.22045292
  38      -0.90119500
  39       0.00000000
  40      -0.00000000
  41       0.13939342
  42       0.07468468
  43       0.07468468
  44       0.00000000
  45       0.00000000
  46       0.00000000
Ene=     3.27737E-01
Spin= Alpha
Occup=   0.0000000000
   1      -0.06321480
   2      -0.07678544
   3      -0.06972165
   4      -0.00000000
   5       0.00000000
   6       1.12827561
   7      -0.42950413
   8       0.00000000
   9       0.00000000
  10      -2.01547930
  11       0.63230362
  12      -0.00000000
  13      -0.00000000
  14       0.76862677
  15      -0.16100804
  16       0.00000000
  17       0.00000000
  18       0.18033790
  19       0.15379759
  20       0.15379759
  21       0.00000000
  22       0.00000000
  23       0.00000000
  24      -0.06321480
  25      -0.07678544
  26       0.06972165
  27       0.00000000
  28       0.00000000
  29       1.12827561
  30       0.42950413
  31       0.00000000
  32       0.00000000
  33      -2.01547930
  34      -0.63230362
  35      -0.00000000
  36      -0.00000000
  37       0.76862677
  38       0.16100804
  39       0.00000000
  40       0.00000000
  41       0.18033790
  42       0.15379759
  43       0.15379759
  44       0.00000000
  45      -0.00000000
  46      -0.00000000
Ene=     3.32560E-01
Spin= Alpha
Occup=   0.0000000000
   1       0.00000000
   2       0.00000000
   3      -0.00000000
   4       0.11690571
   5       0.00072684
   6      -0.00000000
   7       0.00000000
   8       0.93234348
   9       0.00579668
  10       0.00000000
  11       0.00000000
  12      -1.15997081
  13      -0.00721191
  14      -0.00000000
  15      -0.00000000
  16       0.45020952
  17       0.00279910
  18      -0.00000000
  19      -0.00000000
  20      -0.00000000
  21       0.05874208
  22       0.00036522
  23      -0.00000000
  24      -0.00000000
  25      -0.00000000
  26       0.00000000
  27       0.11690571
  28       0.00072684
  29       0.00000000
  30       0.00000000
  31       0.93234348
  32       0.00579668
  33      -0.00000000
  34       0.00000000
  35      -1.15997081
  36      -0.00721191
  37       0.00000000
  38       0.00000000
  39       0.45020952
  40       0.00279910
  41       0.00000000
  42       0.00000000
  43       0.00000000
  44      -0.05874208
  45      -0.00036522
  46      -0.00000000
Ene=     3.32560E-01
Spin= Alpha
Occup=   0.0000000000
   1       0.00000000
   2       0.00000000
   3       0.00000000
   4      -0.00072684
   5       0.11690571
   6      -0.00000000
   7       0.00000000
   8      -0.00579668
   9       0.93234348
  10       0.00000000
  11      -0.00000000
  12       0.00721191
  13      -1.15997081
  14       0.00000000
  15       0.00000000
  16      -0.00279910
  17       0.45020952
  18      -0.00000000
  19      -0.00000000
  20      -0.00000000
  21      -0.00036522
  22       0.05874208
  23      -0.00000000
  24       0.00000000
  25       0.00000000
  26      -0.00000000
  27      -0.00072684
  28       0.11690571
  29      -0.00000000
  30      -0.00000000
  31      -0.00579668
  32       0.93234348
  33      -0.00000000
  34       0.00000000
  35       0.00721191
  36      -1.15997081
  37      -0.00000000
  38       0.00000000
  39      -0.00279910
  40       0.45020952
  41      -0.00000000
  42      -0.00000000
  43      -0.00000000
  44       0.00036522
  45      -0.05874208
  46      -0.00000000
Ene=     3.60185E-01
Spin= Alpha
Occup=   0.0000000000
   1       0.00000000
   2       0.00000000
   3       0.00000000
   4      -0.14294841
   5       0.02907172
   6      -0.00000000
   7       0.00000000
   8      -0.94461550
   9       0.19210847
  10       0.00000000
  11       0.00000000
  12       1.64367788
  13      -0.33427829
  14      -0.00000000
  15      -0.00000000
  16      -0.97187093
  17       0.19765147
  18      -0.00000000
  19      -0.00000000
  20      -0.00000000
  21       0.01375143
  22      -0.00279666
  23       0.00000000
  24      -0.00000000
  25      -0.00000000
  26       0.00000000
  27       0.14294841
  28      -0.02907172
  29       0.00000000
  30       0.00000000
  31       0.94461550
  32      -0.19210847
  33      -0.00000000
  34       0.00000000
  35      -1.64367788
  36       0.33427829
  37       0.00000000
  38      -0.00000000
  39       0.97187093
  40      -0.19765147
  41       0.00000000
  42       0.00000000
  43       0.00000000
  44       0.01375143
  45      -0.00279666
  46      -0.00000000
Ene=     3.60185E-01
Spin= Alpha
Occup=   0.0000000000
   1       0.00000000
   2       0.00000000
   3       0.00000000
   4      -0.02907172
   5      -0.14294841
   6      -0.00000000
   7       0.00000000
   8      -0.19210847
   9      -0.94461550
  10       0.00000000
  11       0.00000000
  12       0.33427829
  13       1.64367788
  14      -0.00000000
  15      -0.00000000
  16      -0.19765147
  17      -0.97187093
  18      -0.00000000
  19      -0.00000000
  20      -0.00000000
  21       0.00279666
  22       0.01375143
  23      -0.00000000
  24      -0.00000000
  25      -0.00000000
  26       0.00000000
  27       0.02907172
  28       0.14294841
  29       0.00000000
  30       0.00000000
  31       0.19210847
  32       0.94461550
  33      -0.00000000
  34       0.00000000
  35      -0.33427829
  36      -1.64367788
  37       0.00000000
  38      -0.00000000
  39       0.19765147
  40       0.97187093
  41       0.00000000
  42       0.00000000
  43       0.00000000
  44       0.00279666
  45       0.01375143
  46       0.00000000
Ene=     3.78310E-01
Spin= Alpha
Occup=   0.0000000000
   1      -0.04838643
   2      -0.05244361
   3      -0.09376943
   4      -0.00000000
   5      -0.00000000
   6       1.21570515
   7      -0.67480114
   8      -0.00000000
   9      -0.00000000
  10      -4.15956719
  11      -0.43906658
  12       0.00000000
  13       0.00000000
  14       9.10632883
  15       2.64666980
  16      -0.00000000
  17      -0.00000000
  18       0.16751512
  19       0.15517982
  20       0.15517982
  21       0.00000000
  22       0.00000000
  23       0.00000000
  24       0.04838643
  25       0.05244361
  26      -0.09376943
  27       0.00000000
  28       0.00000000
  29      -1.21570515
  30      -0.67480114
  31       0.00000000
  32       0.00000000
  33       4.15956719
  34      -0.43906658
  35      -0.00000000
  36      -0.00000000
  37      -9.10632883
  38       2.64666980
  39       0.00000000
  40       0.00000000
  41      -0.16751512
  42      -0.15517982
  43      -0.15517982
  44      -0.00000000
  45       0.00000000
  46      -0.00000000
Ene=     4.22909E-01
Spin= Alpha
Occup=   0.0000000000
   1       0.05520212
   2       0.07506592
   3      -0.18480946
   4       0.00000000
   5       0.00000000
   6      -1.13655540
   7      -0.79147092
   8       0.00000000
   9       0.00000000
  10       4.71430898
  11       2.66496607
  12      -0.00000000
  13      -0.00000000
  14      -6.33980159
  15      -2.30911765
  16       0.00000000
  17       0.00000000
  18      -0.02452735
  19      -0.17876769
  20      -0.17876769
  21      -0.00000000
  22       0.00000000
  23      -0.00000000
  24      -0.05520212
  25      -0.07506592
  26      -0.18480946
  27      -0.00000000
  28      -0.00000000
  29       1.13655540
  30      -0.79147092
  31      -0.00000000
  32      -0.00000000
  33      -4.71430898
  34       2.66496607
  35       0.00000000
  36       0.00000000
  37       6.33980159
  38      -2.30911765
  39      -0.00000000
  40      -0.00000000
  41       0.02452735
  42       0.17876769
  43       0.17876769
  44       0.00000000
  45      -0.00000000
  46       0.00000000
Ene=     6.07433E-01
Spin= Alpha
Occup=   0.0000000000
   1      -0.00000000
   2       0.00000000
   3       0.00000000
   4       0.06139516
   5      -0.00477337
   6      -0.00000000
   7      -0.00000000
   8       0.12225051
   9      -0.00950477
  10       0.00000000
  11      -0.00000000
  12      -0.01784342
  13       0.00138730
  14      -0.00000000
  15      -0.00000000