[Molden Format]
[Title]
 Molden2AIM, Version 3.1.0 (02/25/2015)           Time: Thu Oct 17 19:53:04 2024

[Atoms] AU
E+       1       4     0.00000000     0.00000000     0.00000000
E+       2       4    15.00000000     0.00000000     0.00000000
[GTO]
    1 0
 S   1 1.0
    0.1000000000D-03      0.1000000000D+01
 S   1 1.0
    0.3000000000D-03      0.1000000000D+01
 S   1 1.0
    0.9000000000D-03      0.1000000000D+01
 S   1 1.0
    0.2700000000D-02      0.1000000000D+01
 S   1 1.0
    0.8100000000D-02      0.1000000000D+01
 S   1 1.0
    0.2430000000D-01      0.1000000000D+01
 S   1 1.0
    0.7290000000D-01      0.1000000000D+01
 S   1 1.0
    0.2187000000D+00      0.1000000000D+01
 S   1 1.0
    0.6561000000D+00      0.1000000000D+01
 S   1 1.0
    0.1968300000D+01      0.1000000000D+01
 P   1 1.0
    0.1000000000D-03      0.1000000000D+01
 P   1 1.0
    0.3000000000D-03      0.1000000000D+01
 P   1 1.0
    0.9000000000D-03      0.1000000000D+01
 P   1 1.0
    0.2700000000D-02      0.1000000000D+01
 D   1 1.0
    0.1000000000D-03      0.1000000000D+01
 D   1 1.0
    0.3000000000D-03      0.1000000000D+01

    2 0
 S   1 1.0
    0.1000000000D-03      0.1000000000D+01
 S   1 1.0
    0.3000000000D-03      0.1000000000D+01
 S   1 1.0
    0.9000000000D-03      0.1000000000D+01
 S   1 1.0
    0.2700000000D-02      0.1000000000D+01
 S   1 1.0
    0.8100000000D-02      0.1000000000D+01
 S   1 1.0
    0.2430000000D-01      0.1000000000D+01
 S   1 1.0
    0.7290000000D-01      0.1000000000D+01
 S   1 1.0
    0.2187000000D+00      0.1000000000D+01
 S   1 1.0
    0.6561000000D+00      0.1000000000D+01
 S   1 1.0
    0.1968300000D+01      0.1000000000D+01
 P   1 1.0
    0.1000000000D-03      0.1000000000D+01
 P   1 1.0
    0.3000000000D-03      0.1000000000D+01
 P   1 1.0
    0.9000000000D-03      0.1000000000D+01
 P   1 1.0
    0.2700000000D-02      0.1000000000D+01
 D   1 1.0
    0.1000000000D-03      0.1000000000D+01
 D   1 1.0
    0.3000000000D-03      0.1000000000D+01


[MO]
 Ene=         -0.00633121
 Spin= Alpha
 Occup=        1.00000000
    1        0.0105917600
    2        0.1036683300
    3       -0.0411911000
    4       -0.1354314800
    5       -0.2513705200
    6       -0.2051744500
    7       -0.1238395100
    8        0.1006919700
    9        0.0071799700
   10       -0.0001424400
   11        0.0048068600
   12       -0.0000000000
   13       -0.0000000000
   14       -0.3229664800
   15       -0.0000000000
   16       -0.0000000000
   17        0.0231087400
   18        0.0000000000
   19        0.0000000000
   20       -0.0316165400
   21       -0.0000000000
   22       -0.0000000000
   23       -0.0009993200
   24       -0.0014768800
   25       -0.0014768800
   26       -0.0000000000
   27       -0.0000000000
   28       -0.0000000000
   29       -0.0791967000
   30       -0.0071389200
   31       -0.0071389200
   32       -0.0000000000
   33       -0.0000000000
   34        0.0000000000
   35        0.0105917600
   36        0.1036683300
   37       -0.0411911000
   38       -0.1354314800
   39       -0.2513705200
   40       -0.2051744500
   41       -0.1238395100
   42        0.1006919700
   43        0.0071799700
   44       -0.0001424400
   45       -0.0048068600
   46        0.0000000000
   47        0.0000000000
   48        0.3229664800
   49        0.0000000000
   50        0.0000000000
   51       -0.0231087400
   52       -0.0000000000
   53       -0.0000000000
   54        0.0316165400
   55        0.0000000000
   56        0.0000000000
   57       -0.0009993200
   58       -0.0014768800
   59       -0.0014768800
   60       -0.0000000000
   61       -0.0000000000
   62        0.0000000000
   63       -0.0791967000
   64       -0.0071389200
   65       -0.0071389200
   66       -0.0000000000
   67       -0.0000000000
   68       -0.0000000000
 Ene=         -0.00001735
 Spin= Alpha
 Occup=        0.00000000
    1        0.0021698700
    2        0.0009577900
    3       -2.3006880800
    4       -0.1047133500
    5       -0.3612300900
    6       -0.1956129400
    7       -0.1229974600
    8        0.0984415600
    9        0.0067374300
   10       -0.0000882800
   11       -0.0257892400
   12        0.0000000000
   13       -0.0000000000
   14       -0.0099090700
   15       -0.0000000000
   16       -0.0000000000
   17       -0.4208666000
   18        0.0000000000
   19        0.0000000000
   20        0.1333824100
   21        0.0000000000
   22        0.0000000000
   23       -0.0552575000
   24       -0.0727599700
   25       -0.0727599700
   26        0.0000000000
   27       -0.0000000000
   28       -0.0000000000
   29       -0.1215486800
   30       -0.0921436700
   31       -0.0921436700
   32       -0.0000000000
   33       -0.0000000000
   34        0.0000000000
   35       -0.0021698700
   36       -0.0009577900
   37        2.3006880800
   38        0.1047133500
   39        0.3612300900
   40        0.1956129400
   41        0.1229974600
   42       -0.0984415600
   43       -0.0067374300
   44        0.0000882800
   45       -0.0257892400
   46       -0.0000000000
   47        0.0000000000
   48       -0.0099090700
   49        0.0000000000
   50        0.0000000000
   51       -0.4208666000
   52       -0.0000000000
   53       -0.0000000000
   54        0.1333824100
   55       -0.0000000000
   56       -0.0000000000
   57        0.0552575000
   58        0.0727599700
   59        0.0727599700
   60        0.0000000000
   61       -0.0000000000
   62        0.0000000000
   63        0.1215486800
   64        0.0921436700
   65        0.0921436700
   66       -0.0000000000
   67       -0.0000000000
   68       -0.0000000000
 Ene=          0.00286716
 Spin= Alpha
 Occup=        0.00000000
    1        0.1643079600
    2       -0.0756111900
    3       -1.1930570200
    4        0.7598866900
    5       -0.1059545000
    6        0.1131477900
    7        0.0143836400
    8       -0.0209516700
    9       -0.0031347200
   10        0.0002612700
   11        0.0116042900
   12        0.0000000000
   13        0.0000000000
   14        1.5517845300
   15        0.0000000000
   16       -0.0000000000
   17       -0.3018769300
   18       -0.0000000000
   19        0.0000000000
   20        0.0596779100
   21        0.0000000000
   22       -0.0000000000
   23       -0.0202984500
   24       -0.0240287200
   25       -0.0240287200
   26        0.0000000000
   27        0.0000000000
   28        0.0000000000
   29        0.2388615200
   30       -0.1004182900
   31       -0.1004182900
   32        0.0000000000
   33       -0.0000000000
   34        0.0000000000
   35        0.1643079600
   36       -0.0756111900
   37       -1.1930570200
   38        0.7598866900
   39       -0.1059545000
   40        0.1131477900
   41        0.0143836400
   42       -0.0209516700
   43       -0.0031347200
   44        0.0002612700
   45       -0.0116042900
   46       -0.0000000000
   47       -0.0000000000
   48       -1.5517845300
   49       -0.0000000000
   50        0.0000000000
   51        0.3018769300
   52        0.0000000000
   53       -0.0000000000
   54       -0.0596779100
   55       -0.0000000000
   56       -0.0000000000
   57       -0.0202984500
   58       -0.0240287200
   59       -0.0240287200
   60        0.0000000000
   61        0.0000000000
   62       -0.0000000000
   63        0.2388615200
   64       -0.1004182900
   65       -0.1004182900
   66        0.0000000000
   67       -0.0000000000
   68       -0.0000000000
 Ene=          0.00371645
 Spin= Alpha
 Occup=        0.00000000
    1        0.0000000000
    2        0.0000000000
    3        0.0000000000
    4       -0.0000000000
    5        0.0000000000
    6       -0.0000000000
    7        0.0000000000
    8       -0.0000000000
    9        0.0000000000
   10       -0.0000000000
   11        0.0000000000
   12       -0.0000910700
   13        0.0288590600
   14       -0.0000000000
   15        0.0003811200
   16       -0.1207731000
   17        0.0000000000
   18       -0.0017159500
   19        0.5437718700
   20       -0.0000000000
   21       -0.0001880100
   22        0.0595790100
   23        0.0000000000
   24        0.0000000000
   25        0.0000000000
   26       -0.0003075700
   27        0.0974657500
   28       -0.0000000000
   29       -0.0000000000
   30        0.0000000000
   31        0.0000000000
   32        0.0001402900
   33       -0.0444570400
   34       -0.0000000000
   35        0.0000000000
   36        0.0000000000
   37       -0.0000000000
   38        0.0000000000
   39        0.0000000000
   40       -0.0000000000
   41        0.0000000000
   42       -0.0000000000
   43        0.0000000000
   44       -0.0000000000
   45       -0.0000000000
   46       -0.0000910700
   47        0.0288590600
   48        0.0000000000
   49        0.0003811200
   50       -0.1207731000
   51       -0.0000000000
   52       -0.0017159500
   53        0.5437718700
   54       -0.0000000000
   55       -0.0001880100
   56        0.0595790100
   57       -0.0000000000
   58       -0.0000000000
   59       -0.0000000000
   60        0.0003075700
   61       -0.0974657500
   62        0.0000000000
   63       -0.0000000000
   64       -0.0000000000
   65       -0.0000000000
   66       -0.0001402900
   67        0.0444570400
   68       -0.0000000000
 Ene=          0.00371645
 Spin= Alpha
 Occup=        0.00000000
    1       -0.0000000000
    2       -0.0000000000
    3        0.0000000000
    4       -0.0000000000
    5        0.0000000000
    6       -0.0000000000
    7        0.0000000000
    8       -0.0000000000
    9        0.0000000000
   10       -0.0000000000
   11       -0.0000000000
   12        0.0288590600
   13        0.0000910700
   14        0.0000000000
   15       -0.1207731000
   16       -0.0003811200
   17        0.0000000000
   18        0.5437718700
   19        0.0017159500
   20       -0.0000000000
   21        0.0595790100
   22        0.0001880100
   23       -0.0000000000
   24        0.0000000000
   25        0.0000000000
   26        0.0974657500
   27        0.0003075700
   28       -0.0000000000
   29        0.0000000000
   30       -0.0000000000
   31       -0.0000000000
   32       -0.0444570400
   33       -0.0001402900
   34        0.0000000000
   35       -0.0000000000
   36       -0.0000000000
   37       -0.0000000000
   38        0.0000000000
   39       -0.0000000000
   40        0.0000000000
   41        0.0000000000
   42       -0.0000000000
   43        0.0000000000
   44       -0.0000000000
   45        0.0000000000
   46        0.0288590600
   47        0.0000910700
   48       -0.0000000000
   49       -0.1207731000
   50       -0.0003811200
   51        0.0000000000
   52        0.5437718700
   53        0.0017159500
   54       -0.0000000000
   55        0.0595790100
   56        0.0001880100
   57        0.0000000000
   58        0.0000000000
   59        0.0000000000
   60       -0.0974657500
   61       -0.0003075700
   62        0.0000000000
   63        0.0000000000
   64        0.0000000000
   65        0.0000000000
   66        0.0444570400
   67        0.0001402900
   68       -0.0000000000
 Ene=          0.00492039
 Spin= Alpha
 Occup=        0.00000000
    1        0.0129014600
    2        0.0072998000
    3      -14.3503232600
    4        1.5861250500
    5        0.1823424400
    6        0.1108545700
    7        0.0651766600
    8       -0.0522986600
    9       -0.0035924200
   10        0.0000445100
   11       -0.1530226700
   12        0.0000000000
   13       -0.0000000000
   14       -0.0739508200
   15        0.0000000000
   16        0.0000000000
   17       -2.5542285700
   18       -0.0000000000
   19       -0.0000000000
   20        0.3891695100
   21        0.0000000000
   22        0.0000000000
   23       -0.3306589700
   24       -0.4283986300
   25       -0.4283986300
   26        0.0000000000
   27       -0.0000000000
   28       -0.0000000000
   29       -0.7371159900
   30       -0.5709301700
   31       -0.5709301700
   32        0.0000000000
   33        0.0000000000
   34       -0.0000000000
   35       -0.0129014600
   36       -0.0072998000
   37       14.3503232600
   38       -1.5861250500
   39       -0.1823424400
   40       -0.1108545700
   41       -0.0651766600
   42        0.0522986600
   43        0.0035924200
   44       -0.0000445100
   45       -0.1530226700
   46       -0.0000000000
   47        0.0000000000
   48       -0.0739508200
   49       -0.0000000000
   50       -0.0000000000
   51       -2.5542285700
   52        0.0000000000
   53        0.0000000000
   54        0.3891695100
   55       -0.0000000000
   56       -0.0000000000
   57        0.3306589700
   58        0.4283986300
   59        0.4283986300
   60        0.0000000000
   61       -0.0000000000
   62        0.0000000000
   63        0.7371159900
   64        0.5709301700
   65        0.5709301700
   66        0.0000000000
   67        0.0000000000
   68        0.0000000000
 Ene=          0.00674297
 Spin= Alpha
 Occup=        0.00000000
    1       -0.2460193400
    2       -2.9898687700
    3        0.2204433800
    4        0.7315280200
    5       -0.1797638900
    6        0.0486011400
    7       -0.0237103600
    8        0.0096346600
    9       -0.0009208600
   10        0.0002169000
   11       -0.1356794200
   12        0.0000000000
   13        0.0000000000
   14        9.9655948900
   15        0.0000000000
   16        0.0000000000
   17       -1.4207496500
   18       -0.0000000000
   19       -0.0000000000
   20       -0.5043448500
   21       -0.0000000000
   22       -0.0000000000
   23        0.0278240700
   24        0.0322228400
   25        0.0322228400
   26        0.0000000000
   27        0.0000000000
   28        0.0000000000
   29        2.3595783700
   30        0.1692226500
   31        0.1692226500
   32        0.0000000000
   33        0.0000000000
   34        0.0000000000
   35       -0.2460193400
   36       -2.9898687700
   37        0.2204433800
   38        0.7315280200
   39       -0.1797638900
   40        0.0486011400
   41       -0.0237103600
   42        0.0096346600
   43       -0.0009208600
   44        0.0002169000
   45        0.1356794200
   46       -0.0000000000
   47       -0.0000000000
   48       -9.9655948900
   49       -0.0000000000
   50       -0.0000000000
   51        1.4207496500
   52        0.0000000000
   53        0.0000000000
   54        0.5043448500
   55        0.0000000000
   56        0.0000000000
   57        0.0278240700
   58        0.0322228400
   59        0.0322228400
   60        0.0000000000
   61        0.0000000000
   62       -0.0000000000
   63        2.3595783700
   64        0.1692226500
   65        0.1692226500
   66        0.0000000000
   67        0.0000000000
   68       -0.0000000000
 Ene=          0.00690969
 Spin= Alpha
 Occup=        0.00000000
    1       -0.0000000000
    2       -0.0000000000
    3        0.0000000000
    4        0.0000000000
    5       -0.0000000000
    6        0.0000000000
    7       -0.0000000000
    8        0.0000000000
    9       -0.0000000000
   10        0.0000000000
   11        0.0000000000
   12       -0.5158253700
   13       -0.1249181800
   14        0.0000000000
   15       -9.7243314300
   16       -2.3549554400
   17       -0.0000000000
   18        1.6929781500
   19        0.4099909700
   20       -0.0000000000
   21        0.5813869800
   22        0.1407953300
   23        0.0000000000
   24        0.0000000000
   25        0.0000000000
   26       -0.0613657400
   27       -0.0148610300
   28        0.0000000000
   29        0.0000000000
   30        0.0000000000
   31        0.0000000000
   32       -1.1933744700
   33       -0.2890012300
   34        0.0000000000
   35        0.0000000000
   36        0.0000000000
   37       -0.0000000000
   38        0.0000000000
   39       -0.0000000000
   40        0.0000000000
   41       -0.0000000000
   42        0.0000000000
   43       -0.0000000000
   44        0.0000000000
   45       -0.0000000000
   46        0.5158253700
   47        0.1249181800
   48       -0.0000000000
   49        9.7243314300
   50        2.3549554400
   51        0.0000000000
   52       -1.6929781500
   53       -0.4099909700
   54        0.0000000000
   55       -0.5813869800
   56       -0.1407953300
   57        0.0000000000
   58       -0.0000000000
   59       -0.0000000000
   60       -0.0613657400
   61       -0.0148610300
   62       -0.0000000000
   63        0.0000000000
   64        0.0000000000
   65        0.0000000000
   66       -1.1933744700
   67       -0.2890012300
   68       -0.0000000000
 Ene=          0.00690969
 Spin= Alpha
 Occup=        0.00000000
    1        0.0000000000
    2        0.0000000000
    3        0.0000000000
    4        0.0000000000
    5        0.0000000000
    6       -0.0000000000
    7        0.0000000000
    8       -0.0000000000
    9        0.0000000000
   10       -0.0000000000
   11        0.0000000000
   12        0.1249181800
   13       -0.5158253700
   14        0.0000000000
   15        2.3549554400
   16       -9.7243314300
   17        0.0000000000
   18       -0.4099909700
   19        1.6929781500
   20        0.0000000000
   21       -0.1407953300
   22        0.5813869800
   23        0.0000000000
   24        0.0000000000
   25       -0.0000000000
   26        0.0148610300
   27       -0.0613657400
   28       -0.0000000000
   29        0.0000000000
   30       -0.0000000000
   31       -0.0000000000
   32        0.2890012300
   33       -1.1933744700
   34       -0.0000000000
   35       -0.0000000000
   36       -0.0000000000
   37       -0.0000000000
   38       -0.0000000000
   39        0.0000000000
   40       -0.0000000000
   41        0.0000000000
   42       -0.0000000000
   43        0.0000000000
   44       -0.0000000000
   45       -0.0000000000
   46       -0.1249181800
   47        0.5158253700
   48        0.0000000000
   49       -2.3549554400
   50        9.7243314300
   51        0.0000000000
   52        0.4099909700
   53       -1.6929781500
   54        0.0000000000
   55        0.1407953300
   56       -0.5813869800
   57        0.0000000000
   58       -0.0000000000
   59        0.0000000000
   60        0.0148610300
   61       -0.0613657400
   62        0.0000000000
   63        0.0000000000
   64        0.0000000000
   65        0.0000000000
   66        0.2890012300
   67       -1.1933744700
   68        0.0000000000
 Ene=          0.00958327
 Spin= Alpha
 Occup=        0.00000000
    1        0.0000000000
    2        0.0000000000
    3       -0.0000000000
    4       -0.0000000000
    5       -0.0000000000
    6       -0.0000000000
    7       -0.0000000000
    8        0.0000000000
    9        0.0000000000
   10       -0.0000000000
   11        0.0000000000
   12       -0.0000322900
   13       -0.0315576300
   14       -0.0000000000
   15        0.0001355200
   16        0.1324643700
   17       -0.0000000000
   18       -0.0007156400
   19       -0.6994863900
   20       -0.0000000000
   21        0.0008233800
   22        0.8047956700
   23        0.0000000000
   24        0.0000000000
   25        0.0000000000
   26       -0.0000938200
   27       -0.0916996200
   28        0.0000000000
   29       -0.0000000000
   30        0.0000000000
   31        0.0000000000
   32        0.0000347400
   33        0.0339588600
   34       -0.0000000000
   35        0.0000000000
   36        0.0000000000
   37        0.0000000000
   38        0.0000000000
   39       -0.0000000000
   40        0.0000000000
   41        0.0000000000
   42       -0.0000000000
   43        0.0000000000
   44       -0.0000000000
   45       -0.0000000000
   46       -0.0000322900
   47       -0.0315576300
   48        0.0000000000
   49        0.0001355200
   50        0.1324643700
   51       -0.0000000000
   52       -0.0007156400
   53       -0.6994863900
   54       -0.0000000000
   55        0.0008233800
   56        0.8047956700
   57       -0.0000000000
   58       -0.0000000000
   59       -0.0000000000
   60        0.0000938200
   61        0.0916996200
   62       -0.0000000000
   63       -0.0000000000
   64       -0.0000000000
   65       -0.0000000000
   66       -0.0000347400
   67       -0.0339588600
   68        0.0000000000
 Ene=          0.00958327
 Spin= Alpha
 Occup=        0.00000000
    1       -0.0000000000
    2       -0.0000000000
    3        0.0000000000
    4        0.0000000000
    5        0.0000000000
    6       -0.0000000000
    7        0.0000000000
    8       -0.0000000000
    9        0.0000000000
   10        0.0000000000
   11       -0.0000000000
   12        0.0315576300
   13       -0.0000322900
   14        0.0000000000
   15       -0.1324643700
   16        0.0001355200
   17        0.0000000000
   18        0.6994863900
   19       -0.0007156400
   20        0.0000000000
   21       -0.8047956700
   22        0.0008233800
   23       -0.0000000000
   24       -0.0000000000
   25       -0.0000000000
   26        0.0916996200
   27       -0.0000938200
   28        0.0000000000
   29        0.0000000000
   30       -0.0000000000
   31       -0.0000000000
   32       -0.0339588600
   33        0.0000347400
   34       -0.0000000000
   35       -0.0000000000
   36       -0.0000000000
   37       -0.0000000000
   38       -0.0000000000
   39       -0.0000000000
   40        0.0000000000
   41       -0.0000000000
   42        0.0000000000
   43        0.0000000000
   44        0.0000000000
   45        0.0000000000
   46        0.0315576300
   47       -0.0000322900
   48       -0.0000000000
   49       -0.1324643700
   50        0.0001355200
   51        0.0000000000
   52        0.6994863900
   53       -0.0007156400
   54        0.0000000000
   55       -0.8047956700
   56        0.0008233800
   57        0.0000000000
   58        0.0000000000
   59        0.0000000000
   60       -0.0916996200
   61        0.0000938200
   62       -0.0000000000
   63        0.0000000000
   64        0.0000000000
   65        0.0000000000
   66        0.0339588600
   67       -0.0000347400
   68        0.0000000000
 Ene=          0.01039930
 Spin= Alpha
 Occup=        0.00000000
    1       -0.0012337200
    2       -0.0601290100
    3      -43.8609260800
    4       -7.1420578500
    5        0.0695346600
    6       -0.0486107500
    7       -0.0150237700
    8        0.0139673900
    9        0.0012803100
   10       -0.0000562200
   11        0.0189799600
   12        0.0000000000
   13       -0.0000000000
   14        0.2176648000
   15        0.0000000000
   16        0.0000000000
   17       -9.8694817000
   18       -0.0000000000
   19       -0.0000000000
   20       -4.0331309200
   21        0.0000000000
   22        0.0000000000
   23        0.2367360100
   24       -0.1154981900
   25       -0.1154981900
   26        0.0000000000
   27       -0.0000000000
   28       -0.0000000000
   29        0.1383155000
   30        0.6688014200
   31        0.6688014200
   32        0.0000000000
   33        0.0000000000
   34        0.0000000000
   35        0.0012337200
   36        0.0601290100
   37       43.8609260800
   38        7.1420578500
   39       -0.0695346600
   40        0.0486107500
   41        0.0150237700
   42       -0.0139673900
   43       -0.0012803100
   44        0.0000562200
   45        0.0189799600
   46       -0.0000000000
   47        0.0000000000
   48        0.2176648000
   49       -0.0000000000
   50       -0.0000000000
   51       -9.8694817000
   52        0.0000000000
   53        0.0000000000
   54       -4.0331309200
   55       -0.0000000000
   56       -0.0000000000
   57       -0.2367360100
   58        0.1154981900
   59        0.1154981900
   60        0.0000000000
   61       -0.0000000000
   62        0.0000000000
   63       -0.1383155000
   64       -0.6688014200
   65       -0.6688014200
   66        0.0000000000
   67        0.0000000000
   68       -0.0000000000
 Ene=          0.01226780
 Spin= Alpha
 Occup=        0.00000000
    1        0.1619402300
    2       -1.5591483600
    3        0.8345681600
    4       -1.7160512200
    5        1.1933242000
    6       -0.1005987500
    7        0.1253162900
    8       -0.0685671000
    9        0.0005510700
   10       -0.0006938200
   11       -0.0256928100
   12        0.0000000000
   13        0.0000000000
   14        5.6756591300
   15        0.0000000000
   16       -0.0000000000
   17       -0.4148047800
   18       -0.0000000000
   19        0.0000000000
   20        0.0576335000
   21        0.0000000000
   22       -0.0000000000
   23       -0.0289582800
   24       -0.0265540500
   25       -0.0265540500
   26        0.0000000000
   27        0.0000000000
   28        0.0000000000
   29        1.2350242600
   30       -0.0350916700
   31       -0.0350916700
   32        0.0000000000
   33       -0.0000000000
   34        0.0000000000
   35        0.1619402300
   36       -1.5591483600
   37        0.8345681600
   38       -1.7160512200
   39        1.1933242000
   40       -0.1005987500
   41        0.1253162900
   42       -0.0685671000
   43        0.0005510700
   44       -0.0006938200
   45        0.0256928100
   46       -0.0000000000
   47       -0.0000000000
   48       -5.6756591300
   49       -0.0000000000
   50        0.0000000000
   51        0.4148047800
   52        0.0000000000
   53       -0.0000000000
   54       -0.0576335000
   55       -0.0000000000
   56        0.0000000000
   57       -0.0289582800
   58       -0.0265540500
   59       -0.0265540500
   60        0.0000000000
   61        0.0000000000
   62       -0.0000000000
   63        1.2350242600
   64       -0.0350916700
   65       -0.0350916700
   66        0.0000000000
   67       -0.0000000000
   68       -0.0000000000
 Ene=          0.01475740
 Spin= Alpha
 Occup=        0.00000000
    1       -0.0132177900
    2       -0.0630287100
    3      -17.9756489600
    4       -3.7208857200
    5        1.2139891700
    6       -0.0747273800
    7        0.1242927400
    8       -0.0716132200
    9       -0.0002668300
   10       -0.0006086100
   11        0.1595171800
   12        0.0000000000
   13       -0.0000000000
   14        0.3150476600
   15        0.0000000000
   16        0.0000000000
   17       -5.2238062800
   18       -0.0000000000
   19       -0.0000000000
   20       -0.3630337200
   21        0.0000000000
   22        0.0000000000
   23        0.4994187300
   24        0.2992958900
   25        0.2992958900
   26        0.0000000000
   27       -0.0000000000
   28       -0.0000000000
   29        0.8987543400
   30        1.1683281100
   31        1.1683281100
   32        0.0000000000
   33        0.0000000000
   34        0.0000000000
   35        0.0132177900
   36        0.0630287100
   37       17.9756489600
   38        3.7208857200
   39       -1.2139891700
   40        0.0747273800
   41       -0.1242927400
   42        0.0716132200
   43        0.0002668300
   44        0.0006086100
   45        0.1595171800
   46       -0.0000000000
   47        0.0000000000
   48        0.3150476600
   49       -0.0000000000
   50       -0.0000000000
   51       -5.2238062800
   52        0.0000000000
   53        0.0000000000
   54       -0.3630337200
   55       -0.0000000000
   56       -0.0000000000
   57       -0.4994187300
   58       -0.2992958900
   59       -0.2992958900
   60        0.0000000000
   61       -0.0000000000
   62        0.0000000000
   63       -0.8987543400
   64       -1.1683281100
   65       -1.1683281100
   66        0.0000000000
   67        0.0000000000
   68       -0.0000000000
 Ene=          0.01488820
 Spin= Alpha
 Occup=        0.00000000
    1       -0.6193821400
    2       -4.2134497500
    3        1.4946450900
    4       -0.1040875400
    5       -0.4694435800
    6        0.0267024500
    7       -0.0371042200
    8        0.0209048600
    9       -0.0000719700
   10        0.0001992800
   11       -0.2182329900
   12        0.0000000000
   13        0.0000000000
   14       12.2363957600
   15        0.0000000000
   16       -0.0000000000
   17       -2.4213350500
   18       -0.0000000000
   19        0.0000000000
   20        1.3047180300
   21        0.0000000000
   22       -0.0000000000
   23        0.0795757600
   24        0.0840102400
   25        0.0840102400
   26        0.0000000000
   27        0.0000000000
   28       -0.0000000000
   29        3.0641416400
   30        0.4018475000
   31        0.4018475000
   32        0.0000000000
   33       -0.0000000000
   34        0.0000000000
   35       -0.6193821400
   36       -4.2134497500
   37        1.4946450900
   38       -0.1040875400
   39       -0.4694435800
   40        0.0267024500
   41       -0.0371042200
   42        0.0209048600
   43       -0.0000719700
   44        0.0001992800
   45        0.2182329900
   46       -0.0000000000
   47       -0.0000000000
   48      -12.2363957600
   49       -0.0000000000
   50        0.0000000000
   51        2.4213350500
   52        0.0000000000
   53       -0.0000000000
   54       -1.3047180300
   55       -0.0000000000
   56        0.0000000000
   57        0.0795757600
   58        0.0840102400
   59        0.0840102400
   60        0.0000000000
   61        0.0000000000
   62        0.0000000000
   63        3.0641416400
   64        0.4018475000
   65        0.4018475000
   66        0.0000000000
   67       -0.0000000000
   68       -0.0000000000
 Ene=          0.01491190
 Spin= Alpha
 Occup=        0.00000000
    1       -0.0000000000
    2       -0.0000000000
    3        0.0000000000
    4       -0.0000000000
    5       -0.0000000000
    6        0.0000000000
    7       -0.0000000000
    8        0.0000000000
    9       -0.0000000000
   10        0.0000000000
   11        0.0000000000
   12       -0.6325795700
   13       -0.1696243700
   14        0.0000000000
   15      -11.9163699600
   16       -3.1953399600