 Molden2AIM, Version 3.1.0 (02/25/2015)           Time: Thu Oct 17 19:56:04 2024
GAUSSIAN             68 MOL ORBITALS     68 PRIMITIVES        2 NUCLEI
  Be   1    (CENTRE  1)   0.00000000  0.00000000  0.00000000  CHARGE =  4.0
  Be   2    (CENTRE  2)  54.40000000  0.00000000  0.00000000  CHARGE =  4.0
CENTRE ASSIGNMENTS    1  1  1  1  1  1  1  1  1  1  1  1  1  1  1  1  1  1  1  1
CENTRE ASSIGNMENTS    1  1  1  1  1  1  1  1  1  1  1  1  1  1  2  2  2  2  2  2
CENTRE ASSIGNMENTS    2  2  2  2  2  2  2  2  2  2  2  2  2  2  2  2  2  2  2  2
CENTRE ASSIGNMENTS    2  2  2  2  2  2  2  2
TYPE ASSIGNMENTS      1  1  1  1  1  1  1  1  1  1  2  3  4  2  3  4  2  3  4  2
TYPE ASSIGNMENTS      3  4  5  6  7  8  9 10  5  6  7  8  9 10  1  1  1  1  1  1
TYPE ASSIGNMENTS      1  1  1  1  2  3  4  2  3  4  2  3  4  2  3  4  5  6  7  8
TYPE ASSIGNMENTS      9 10  5  6  7  8  9 10
EXPONENTS  0.1000000D-03 0.3000000D-03 0.9000000D-03 0.2700000D-02 0.8100000D-02
EXPONENTS  0.2430000D-01 0.7290000D-01 0.2187000D+00 0.6561000D+00 0.1968300D+01
EXPONENTS  0.1000000D-03 0.1000000D-03 0.1000000D-03 0.3000000D-03 0.3000000D-03
EXPONENTS  0.3000000D-03 0.9000000D-03 0.9000000D-03 0.9000000D-03 0.2700000D-02
EXPONENTS  0.2700000D-02 0.2700000D-02 0.1000000D-03 0.1000000D-03 0.1000000D-03
EXPONENTS  0.1000000D-03 0.1000000D-03 0.1000000D-03 0.3000000D-03 0.3000000D-03
EXPONENTS  0.3000000D-03 0.3000000D-03 0.3000000D-03 0.3000000D-03 0.1000000D-03
EXPONENTS  0.3000000D-03 0.9000000D-03 0.2700000D-02 0.8100000D-02 0.2430000D-01
EXPONENTS  0.7290000D-01 0.2187000D+00 0.6561000D+00 0.1968300D+01 0.1000000D-03
EXPONENTS  0.1000000D-03 0.1000000D-03 0.3000000D-03 0.3000000D-03 0.3000000D-03
EXPONENTS  0.9000000D-03 0.9000000D-03 0.9000000D-03 0.2700000D-02 0.2700000D-02
EXPONENTS  0.2700000D-02 0.1000000D-03 0.1000000D-03 0.1000000D-03 0.1000000D-03
EXPONENTS  0.1000000D-03 0.1000000D-03 0.3000000D-03 0.3000000D-03 0.3000000D-03
EXPONENTS  0.3000000D-03 0.3000000D-03 0.3000000D-03
MO    1     MO 0.0        OCC NO =    1.0000000  ORB. ENERGY =    0.002747
 -0.19685802D-03 -0.26008822D-03  0.16430580D-02  0.69382246D-03  0.29612784D-02
  0.55538129D-02  0.79553152D-02 -0.14643732D-01 -0.22621430D-02  0.68621002D-04
  0.36394490D-05  0.00000000D+00 -0.00000000D+00 -0.48972976D-05 -0.00000000D+00
  0.00000000D+00  0.34127782D-04  0.00000000D+00 -0.00000000D+00  0.16504325D-03
 -0.00000000D+00  0.00000000D+00  0.22671781D-07  0.33646480D-08  0.33646480D-08
  0.00000000D+00 -0.00000000D+00 -0.00000000D+00  0.69030667D-07  0.78188826D-07
  0.78188826D-07 -0.00000000D+00  0.00000000D+00 -0.00000000D+00 -0.19685802D-03
 -0.26008822D-03  0.16430580D-02  0.69382246D-03  0.29612784D-02  0.55538129D-02
  0.79553152D-02 -0.14643732D-01 -0.22621430D-02  0.68621002D-04 -0.36394490D-05
 -0.00000000D+00  0.00000000D+00  0.48972976D-05  0.00000000D+00 -0.00000000D+00
 -0.34127782D-04 -0.00000000D+00  0.00000000D+00 -0.16504325D-03  0.00000000D+00
 -0.00000000D+00  0.22671781D-07  0.33646480D-08  0.33646480D-08  0.00000000D+00
 -0.00000000D+00  0.00000000D+00  0.69030667D-07  0.78188826D-07  0.78188826D-07
 -0.00000000D+00 -0.00000000D+00 -0.00000000D+00
MO    2     MO 0.0        OCC NO =    0.0000000  ORB. ENERGY =    0.003731
 -0.14746318D-04  0.18779609D-02  0.37674975D-04  0.33215601D-02  0.28000010D-02
  0.86009673D-02  0.99775871D-02 -0.19265447D-01 -0.33516807D-02  0.21199792D-03
  0.42735103D-06 -0.00000000D+00 -0.00000000D+00  0.39420294D-04  0.00000000D+00
  0.00000000D+00 -0.28856372D-04 -0.00000000D+00 -0.00000000D+00  0.24495563D-03
  0.00000000D+00  0.00000000D+00  0.39971860D-08  0.33688468D-08  0.33688468D-08
 -0.00000000D+00 -0.00000000D+00  0.00000000D+00  0.28197589D-06  0.63318084D-07
  0.63318084D-07  0.00000000D+00  0.00000000D+00  0.00000000D+00  0.14746318D-04
 -0.18779609D-02 -0.37674975D-04 -0.33215601D-02 -0.28000010D-02 -0.86009673D-02
 -0.99775871D-02  0.19265447D-01  0.33516807D-02 -0.21199792D-03  0.42735103D-06
  0.00000000D+00  0.00000000D+00  0.39420294D-04 -0.00000000D+00 -0.00000000D+00
 -0.28856372D-04  0.00000000D+00 -0.00000000D+00  0.24495563D-03 -0.00000000D+00
  0.00000000D+00 -0.39971860D-08 -0.33688468D-08 -0.33688468D-08 -0.00000000D+00
  0.00000000D+00 -0.00000000D+00 -0.28197589D-06 -0.63318084D-07 -0.63318084D-07
  0.00000000D+00 -0.00000000D+00  0.00000000D+00
MO    3     MO 0.0        OCC NO =    0.0000000  ORB. ENERGY =    0.006634
  0.40121596D-03  0.23036395D-03 -0.32391168D-02  0.59574295D-02  0.15648712D-02
  0.84134341D-02  0.75700555D-02 -0.15627474D-01 -0.31264920D-02  0.30183055D-03
 -0.10840956D-04 -0.00000000D+00 -0.00000000D+00  0.15929045D-04  0.00000000D+00
  0.00000000D+00 -0.11842613D-03 -0.00000000D+00  0.00000000D+00  0.18545547D-03
  0.00000000D+00 -0.00000000D+00 -0.62491438D-07 -0.36908535D-08 -0.36908535D-08
 -0.00000000D+00 -0.00000000D+00 -0.00000000D+00 -0.15610792D-07 -0.82005638D-07
 -0.82005638D-07 -0.00000000D+00 -0.00000000D+00  0.00000000D+00  0.40121596D-03
  0.23036395D-03 -0.32391168D-02  0.59574295D-02  0.15648712D-02  0.84134341D-02
  0.75700555D-02 -0.15627474D-01 -0.31264920D-02  0.30183055D-03  0.10840956D-04
  0.00000000D+00  0.00000000D+00 -0.15929045D-04 -0.00000000D+00 -0.00000000D+00
  0.11842613D-03  0.00000000D+00  0.00000000D+00 -0.18545547D-03 -0.00000000D+00
 -0.00000000D+00 -0.62491438D-07 -0.36908535D-08 -0.36908535D-08 -0.00000000D+00
 -0.00000000D+00 -0.00000000D+00 -0.15610792D-07 -0.82005638D-07 -0.82005638D-07
 -0.00000000D+00  0.00000000D+00  0.00000000D+00
MO    4     MO 0.0        OCC NO =    0.0000000  ORB. ENERGY =    0.013017
 -0.48673507D-05 -0.44630501D-02  0.31472151D-02  0.21585061D-02 -0.11468229D-01
 -0.36651510D-02 -0.10796471D-01  0.17648680D-01  0.19166653D-02  0.19428010D-03
  0.14644233D-05  0.00000000D+00  0.00000000D+00 -0.80619736D-04  0.00000000D+00
 -0.00000000D+00  0.55689584D-04  0.00000000D+00  0.00000000D+00  0.36587313D-03
 -0.00000000D+00 -0.00000000D+00  0.14502171D-07  0.11335473D-07  0.11335473D-07
 -0.00000000D+00  0.00000000D+00  0.00000000D+00 -0.30400838D-06  0.14388913D-06
  0.14388913D-06  0.00000000D+00 -0.00000000D+00 -0.00000000D+00  0.48673507D-05
  0.44630501D-02 -0.31472151D-02 -0.21585061D-02  0.11468229D-01  0.36651510D-02
  0.10796471D-01 -0.17648680D-01 -0.19166653D-02 -0.19428010D-03  0.14644233D-05
 -0.00000000D+00 -0.00000000D+00 -0.80619736D-04 -0.00000000D+00  0.00000000D+00
  0.55689584D-04 -0.00000000D+00 -0.00000000D+00  0.36587313D-03 -0.00000000D+00
  0.00000000D+00 -0.14502171D-07 -0.11335473D-07 -0.11335473D-07 -0.00000000D+00
  0.00000000D+00 -0.00000000D+00  0.30400838D-06 -0.14388913D-06 -0.14388913D-06
  0.00000000D+00 -0.00000000D+00  0.00000000D+00
MO    5     MO 0.0        OCC NO =    0.0000000  ORB. ENERGY =    0.014760
 -0.00000000D+00  0.00000000D+00 -0.00000000D+00  0.00000000D+00 -0.00000000D+00
  0.00000000D+00 -0.00000000D+00  0.00000000D+00  0.00000000D+00 -0.00000000D+00
 -0.00000000D+00 -0.60743673D-06 -0.58635562D-06  0.00000000D+00  0.61782607D-05
  0.59638439D-05 -0.00000000D+00 -0.86172311D-04 -0.83181700D-04  0.00000000D+00
 -0.13286567D-03 -0.12825456D-03 -0.00000000D+00  0.00000000D+00  0.00000000D+00
  0.13899918D-07  0.13417519D-07  0.00000000D+00  0.00000000D+00  0.00000000D+00
  0.00000000D+00 -0.15591827D-06 -0.15050713D-06 -0.00000000D+00  0.00000000D+00
 -0.00000000D+00  0.00000000D+00  0.00000000D+00 -0.00000000D+00  0.00000000D+00
 -0.00000000D+00  0.00000000D+00 -0.00000000D+00 -0.00000000D+00  0.00000000D+00
 -0.60743673D-06 -0.58635562D-06  0.00000000D+00  0.61782607D-05  0.59638439D-05
  0.00000000D+00 -0.86172311D-04 -0.83181700D-04 -0.00000000D+00 -0.13286567D-03
 -0.12825456D-03 -0.00000000D+00 -0.00000000D+00 -0.00000000D+00 -0.13899918D-07
 -0.13417519D-07 -0.00000000D+00 -0.00000000D+00  0.00000000D+00  0.00000000D+00
  0.15591827D-06  0.15050713D-06  0.00000000D+00
MO    6     MO 0.0        OCC NO =    0.0000000  ORB. ENERGY =    0.014760
 -0.00000000D+00  0.00000000D+00 -0.00000000D+00  0.00000000D+00 -0.00000000D+00
  0.00000000D+00 -0.00000000D+00  0.00000000D+00 -0.00000000D+00  0.00000000D+00
  0.00000000D+00 -0.58635562D-06  0.60743673D-06  0.00000000D+00  0.59638439D-05
 -0.61782607D-05 -0.00000000D+00 -0.83181700D-04  0.86172311D-04  0.00000000D+00
 -0.12825456D-03  0.13286567D-03  0.00000000D+00  0.00000000D+00  0.00000000D+00
  0.13417519D-07 -0.13899918D-07  0.00000000D+00  0.00000000D+00  0.00000000D+00
  0.00000000D+00 -0.15050713D-06  0.15591827D-06 -0.00000000D+00 -0.00000000D+00
 -0.00000000D+00  0.00000000D+00  0.00000000D+00 -0.00000000D+00 -0.00000000D+00
 -0.00000000D+00  0.00000000D+00  0.00000000D+00 -0.00000000D+00 -0.00000000D+00
 -0.58635562D-06  0.60743673D-06  0.00000000D+00  0.59638439D-05 -0.61782607D-05
  0.00000000D+00 -0.83181700D-04  0.86172311D-04 -0.00000000D+00 -0.12825456D-03
  0.13286567D-03  0.00000000D+00  0.00000000D+00  0.00000000D+00 -0.13417519D-07
  0.13899918D-07 -0.00000000D+00  0.00000000D+00  0.00000000D+00  0.00000000D+00
  0.15050713D-06 -0.15591827D-06 -0.00000000D+00
MO    7     MO 0.0        OCC NO =    0.0000000  ORB. ENERGY =    0.015127
 -0.28583411D-03 -0.64595381D-03 -0.29562961D-03  0.10230938D-01 -0.16221374D-01
  0.60694394D-03 -0.11286395D-01  0.16045588D-01  0.68639374D-03  0.52235576D-03
 -0.57578732D-05 -0.00000000D+00  0.00000000D+00  0.41473644D-05  0.00000000D+00
 -0.00000000D+00 -0.12368961D-03  0.00000000D+00  0.00000000D+00  0.70174752D-03
  0.00000000D+00  0.00000000D+00 -0.15521700D-07  0.14673467D-07  0.14673467D-07
 -0.00000000D+00  0.00000000D+00 -0.00000000D+00  0.25186142D-06  0.32132845D-06
  0.32132845D-06  0.00000000D+00  0.00000000D+00  0.00000000D+00 -0.28583411D-03
 -0.64595381D-03 -0.29562961D-03  0.10230938D-01 -0.16221374D-01  0.60694394D-03
 -0.11286395D-01  0.16045588D-01  0.68639374D-03  0.52235576D-03  0.57578732D-05
  0.00000000D+00 -0.00000000D+00 -0.41473644D-05 -0.00000000D+00  0.00000000D+00
  0.12368961D-03  0.00000000D+00 -0.00000000D+00 -0.70174752D-03 -0.00000000D+00
  0.00000000D+00 -0.15521700D-07  0.14673467D-07  0.14673467D-07 -0.00000000D+00
  0.00000000D+00  0.00000000D+00  0.25186142D-06  0.32132845D-06  0.32132845D-06
  0.00000000D+00  0.00000000D+00 -0.00000000D+00
MO    8     MO 0.0        OCC NO =    0.0000000  ORB. ENERGY =    0.017211
 -0.00000000D+00 -0.00000000D+00  0.00000000D+00  0.00000000D+00 -0.00000000D+00
 -0.00000000D+00 -0.00000000D+00  0.00000000D+00 -0.00000000D+00  0.00000000D+00
  0.00000000D+00 -0.24407739D-06 -0.83607236D-06 -0.00000000D+00 -0.50637831D-06
 -0.17345686D-05 -0.00000000D+00 -0.39017423D-05 -0.13365182D-04  0.00000000D+00
 -0.16660980D-03 -0.57071167D-03  0.00000000D+00  0.00000000D+00  0.00000000D+00
 -0.65394148D-09 -0.22400361D-08 -0.00000000D+00  0.00000000D+00  0.00000000D+00
  0.00000000D+00 -0.22628727D-07 -0.77513305D-07  0.00000000D+00 -0.00000000D+00
  0.00000000D+00  0.00000000D+00 -0.00000000D+00  0.00000000D+00 -0.00000000D+00
  0.00000000D+00  0.00000000D+00 -0.00000000D+00  0.00000000D+00 -0.00000000D+00
  0.24407739D-06  0.83607236D-06 -0.00000000D+00  0.50637831D-06  0.17345686D-05
 -0.00000000D+00  0.39017423D-05  0.13365182D-04  0.00000000D+00  0.16660980D-03
  0.57071167D-03  0.00000000D+00  0.00000000D+00  0.00000000D+00 -0.65394148D-09
 -0.22400361D-08  0.00000000D+00  0.00000000D+00  0.00000000D+00  0.00000000D+00
 -0.22628727D-07 -0.77513305D-07  0.00000000D+00
MO    9     MO 0.0        OCC NO =    0.0000000  ORB. ENERGY =    0.017211
  0.00000000D+00 -0.00000000D+00  0.00000000D+00 -0.00000000D+00  0.00000000D+00
 -0.00000000D+00  0.00000000D+00 -0.00000000D+00 -0.00000000D+00  0.00000000D+00
  0.00000000D+00 -0.83607236D-06  0.24407739D-06 -0.00000000D+00 -0.17345686D-05
  0.50637831D-06  0.00000000D+00 -0.13365182D-04  0.39017423D-05 -0.00000000D+00
 -0.57071167D-03  0.16660980D-03  0.00000000D+00 -0.00000000D+00 -0.00000000D+00
 -0.22400361D-08  0.65394148D-09 -0.00000000D+00 -0.00000000D+00 -0.00000000D+00
 -0.00000000D+00 -0.77513305D-07  0.22628727D-07  0.00000000D+00 -0.00000000D+00
  0.00000000D+00 -0.00000000D+00  0.00000000D+00 -0.00000000D+00  0.00000000D+00
 -0.00000000D+00  0.00000000D+00 -0.00000000D+00  0.00000000D+00 -0.00000000D+00
  0.83607236D-06 -0.24407739D-06 -0.00000000D+00  0.17345686D-05 -0.50637831D-06
  0.00000000D+00  0.13365182D-04 -0.39017423D-05 -0.00000000D+00  0.57071167D-03
 -0.16660980D-03  0.00000000D+00  0.00000000D+00  0.00000000D+00 -0.22400361D-08
  0.65394148D-09  0.00000000D+00  0.00000000D+00  0.00000000D+00  0.00000000D+00
 -0.77513305D-07  0.22628727D-07  0.00000000D+00
MO   10     MO 0.0        OCC NO =    0.0000000  ORB. ENERGY =    0.019598
  0.64837019D-04 -0.17836330D-01  0.94523602D-02 -0.14644848D-01  0.12153552D-01
 -0.28573722D-02  0.59441392D-02 -0.71386589D-02  0.32871667D-03 -0.43936864D-03
  0.69393794D-06  0.00000000D+00 -0.00000000D+00 -0.35013307D-03 -0.00000000D+00
  0.00000000D+00  0.35317040D-03  0.00000000D+00 -0.00000000D+00 -0.60452578D-03
 -0.00000000D+00  0.00000000D+00  0.51830569D-08  0.62837299D-08  0.62837299D-08
  0.00000000D+00 -0.00000000D+00  0.00000000D+00 -0.19567313D-05 -0.64334055D-07
 -0.64334055D-07 -0.00000000D+00  0.00000000D+00 -0.00000000D+00 -0.64837019D-04
  0.17836330D-01 -0.94523602D-02  0.14644848D-01 -0.12153552D-01  0.28573722D-02
 -0.59441392D-02  0.71386589D-02 -0.32871667D-03  0.43936864D-03  0.69393794D-06
 -0.00000000D+00  0.00000000D+00 -0.35013307D-03  0.00000000D+00 -0.00000000D+00
  0.35317040D-03 -0.00000000D+00 -0.00000000D+00 -0.60452578D-03 -0.00000000D+00
  0.00000000D+00 -0.51830569D-08 -0.62837299D-08 -0.62837299D-08  0.00000000D+00
 -0.00000000D+00 -0.00000000D+00  0.19567313D-05  0.64334055D-07  0.64334055D-07
 -0.00000000D+00  0.00000000D+00  0.00000000D+00
MO   11     MO 0.0        OCC NO =    0.0000000  ORB. ENERGY =    0.020874
 -0.00000000D+00  0.00000000D+00  0.00000000D+00 -0.00000000D+00  0.00000000D+00
 -0.00000000D+00  0.00000000D+00 -0.00000000D+00  0.00000000D+00 -0.00000000D+00
  0.00000000D+00 -0.77075619D-06  0.67362427D-06  0.00000000D+00  0.82897543D-05
 -0.72450671D-05  0.00000000D+00 -0.14469283D-03  0.12645843D-03 -0.00000000D+00
  0.65649238D-03 -0.57376025D-03  0.00000000D+00  0.00000000D+00  0.00000000D+00
  0.16302958D-07 -0.14248436D-07 -0.00000000D+00  0.00000000D+00  0.00000000D+00
  0.00000000D+00 -0.18690793D-06  0.16335353D-06 -0.00000000D+00 -0.00000000D+00
 -0.00000000D+00 -0.00000000D+00  0.00000000D+00 -0.00000000D+00  0.00000000D+00
 -0.00000000D+00  0.00000000D+00 -0.00000000D+00  0.00000000D+00 -0.00000000D+00
 -0.77075619D-06  0.67362427D-06  0.00000000D+00  0.82897543D-05 -0.72450671D-05
  0.00000000D+00 -0.14469283D-03  0.12645843D-03 -0.00000000D+00  0.65649238D-03
 -0.57376025D-03  0.00000000D+00 -0.00000000D+00 -0.00000000D+00 -0.16302958D-07
  0.14248436D-07  0.00000000D+00 -0.00000000D+00 -0.00000000D+00 -0.00000000D+00
  0.18690793D-06 -0.16335353D-06  0.00000000D+00
MO   12     MO 0.0        OCC NO =    0.0000000  ORB. ENERGY =    0.020874
  0.00000000D+00 -0.00000000D+00 -0.00000000D+00  0.00000000D+00 -0.00000000D+00
  0.00000000D+00 -0.00000000D+00  0.00000000D+00  0.00000000D+00 -0.00000000D+00
 -0.00000000D+00 -0.67362427D-06 -0.77075619D-06 -0.00000000D+00  0.72450671D-05
  0.82897543D-05 -0.00000000D+00 -0.12645843D-03 -0.14469283D-03  0.00000000D+00
  0.57376025D-03  0.65649238D-03 -0.00000000D+00 -0.00000000D+00 -0.00000000D+00
  0.14248436D-07  0.16302958D-07 -0.00000000D+00 -0.00000000D+00  0.00000000D+00
 -0.00000000D+00 -0.16335353D-06 -0.18690793D-06  0.00000000D+00 -0.00000000D+00
  0.00000000D+00  0.00000000D+00 -0.00000000D+00  0.00000000D+00 -0.00000000D+00
  0.00000000D+00 -0.00000000D+00  0.00000000D+00 -0.00000000D+00 -0.00000000D+00
 -0.67362427D-06 -0.77075619D-06 -0.00000000D+00  0.72450671D-05  0.82897543D-05
 -0.00000000D+00 -0.12645843D-03 -0.14469283D-03  0.00000000D+00  0.57376025D-03
  0.65649238D-03  0.00000000D+00  0.00000000D+00  0.00000000D+00 -0.14248436D-07
 -0.16302958D-07  0.00000000D+00  0.00000000D+00  0.00000000D+00  0.00000000D+00
  0.16335353D-06  0.18690793D-06  0.00000000D+00
MO   13     MO 0.0        OCC NO =    0.0000000  ORB. ENERGY =    0.025173
  0.40179888D-03  0.11933036D-03 -0.48754698D-03  0.74309931D-02 -0.11779862D-01
 -0.89983356D-03 -0.65654498D-02  0.99582357D-02  0.79426526D-03  0.21036352D-03
 -0.87029538D-05 -0.00000000D+00  0.00000000D+00  0.11825896D-04  0.00000000D+00
 -0.00000000D+00 -0.56738744D-04 -0.00000000D+00  0.00000000D+00 -0.23963454D-03
  0.00000000D+00 -0.00000000D+00 -0.53653318D-07 -0.57854071D-08 -0.57854071D-08
 -0.00000000D+00  0.00000000D+00 -0.00000000D+00 -0.40339111D-07 -0.10154608D-06
 -0.10154608D-06  0.00000000D+00 -0.00000000D+00  0.00000000D+00  0.40179888D-03
  0.11933036D-03 -0.48754698D-03  0.74309931D-02 -0.11779862D-01 -0.89983356D-03
 -0.65654498D-02  0.99582357D-02  0.79426526D-03  0.21036352D-03  0.87029538D-05
  0.00000000D+00 -0.00000000D+00 -0.11825896D-04 -0.00000000D+00  0.00000000D+00
  0.56738744D-04  0.00000000D+00 -0.00000000D+00  0.23963454D-03 -0.00000000D+00
  0.00000000D+00 -0.53653318D-07 -0.57854071D-08 -0.57854071D-08 -0.00000000D+00
  0.00000000D+00  0.00000000D+00 -0.40339111D-07 -0.10154608D-06 -0.10154608D-06
  0.00000000D+00 -0.00000000D+00 -0.00000000D+00
MO   14     MO 0.0        OCC NO =    0.0000000  ORB. ENERGY =    0.026504
  0.00000000D+00  0.00000000D+00  0.00000000D+00 -0.00000000D+00  0.00000000D+00
 -0.00000000D+00  0.00000000D+00 -0.00000000D+00  0.00000000D+00  0.00000000D+00
 -0.00000000D+00 -0.24544040D-04 -0.16563632D-04  0.00000000D+00  0.27262393D-04
  0.18398123D-04 -0.00000000D+00 -0.26654247D-03 -0.17987713D-03  0.00000000D+00
  0.61333562D-03  0.41391171D-03 -0.00000000D+00  0.00000000D+00  0.00000000D+00
 -0.12402044D-06 -0.83695635D-07  0.00000000D+00  0.00000000D+00  0.00000000D+00
  0.00000000D+00  0.47074816D-07  0.31768602D-07  0.00000000D+00 -0.00000000D+00
 -0.00000000D+00  0.00000000D+00 -0.00000000D+00  0.00000000D+00  0.00000000D+00
  0.00000000D+00 -0.00000000D+00 -0.00000000D+00  0.00000000D+00  0.00000000D+00
  0.24544040D-04  0.16563632D-04  0.00000000D+00 -0.27262393D-04 -0.18398123D-04
 -0.00000000D+00  0.26654247D-03  0.17987713D-03 -0.00000000D+00 -0.61333562D-03
 -0.41391171D-03 -0.00000000D+00 -0.00000000D+00 -0.00000000D+00 -0.12402044D-06
 -0.83695635D-07 -0.00000000D+00 -0.00000000D+00 -0.00000000D+00 -0.00000000D+00
  0.47074816D-07  0.31768602D-07  0.00000000D+00
MO   15     MO 0.0        OCC NO =    0.0000000  ORB. ENERGY =    0.026504
 -0.00000000D+00 -0.00000000D+00  0.00000000D+00 -0.00000000D+00  0.00000000D+00
 -0.00000000D+00 -0.00000000D+00  0.00000000D+00 -0.00000000D+00 -0.00000000D+00
  0.00000000D+00  0.16563632D-04 -0.24544040D-04 -0.00000000D+00 -0.18398123D-04
  0.27262393D-04  0.00000000D+00  0.17987713D-03 -0.26654247D-03 -0.00000000D+00
 -0.41391171D-03  0.61333562D-03  0.00000000D+00 -0.00000000D+00 -0.00000000D+00
  0.83695635D-07 -0.12402044D-06  0.00000000D+00 -0.00000000D+00 -0.00000000D+00
 -0.00000000D+00 -0.31768602D-07  0.47074816D-07 -0.00000000D+00 -0.00000000D+00
  0.00000000D+00  0.00000000D+00 -0.00000000D+00 -0.00000000D+00  0.00000000D+00
 -0.00000000D+00  0.00000000D+00  0.00000000D+00 -0.00000000D+00 -0.00000000D+00
 -0.16563632D-04  0.24544040D-04 -0.00000000D+00  0.18398123D-04 -0.27262393D-04
  0.00000000D+00 -0.17987713D-03  0.26654247D-03  0.00000000D+00  0.41391171D-03
 -0.61333562D-03  0.00000000D+00  0.00000000D+00  0.00000000D+00  0.83695635D-07
 -0.12402044D-06 -0.00000000D+00  0.00000000D+00  0.00000000D+00  0.00000000D+00
 -0.31768602D-07  0.47074816D-07  0.00000000D+00
MO   16     MO 0.0        OCC NO =    0.0000000  ORB. ENERGY =    0.026883
 -0.17018238D-04  0.41804690D-02 -0.37566773D-02  0.12758020D-01 -0.15123892D-01
 -0.18688759D-03 -0.75696995D-02  0.11042368D-01  0.68650285D-03  0.29702211D-03
 -0.10871253D-06 -0.00000000D+00  0.00000000D+00  0.85702393D-04  0.00000000D+00
 -0.00000000D+00 -0.15903130D-03  0.00000000D+00  0.00000000D+00 -0.24765279D-03
 -0.00000000D+00 -0.00000000D+00  0.12052698D-08 -0.24026045D-08 -0.24026045D-08
 -0.00000000D+00  0.00000000D+00 -0.00000000D+00  0.48577438D-06  0.59805783D-07
  0.59805783D-07  0.00000000D+00 -0.00000000D+00  0.00000000D+00  0.17018238D-04
 -0.41804690D-02  0.37566773D-02 -0.12758020D-01  0.15123892D-01  0.18688759D-03
  0.75696995D-02 -0.11042368D-01 -0.68650285D-03 -0.29702211D-03 -0.10871253D-06
  0.00000000D+00 -0.00000000D+00  0.85702393D-04 -0.00000000D+00  0.00000000D+00
 -0.15903130D-03  0.00000000D+00 -0.00000000D+00 -0.24765279D-03  0.00000000D+00
  0.00000000D+00 -0.12052698D-08  0.24026045D-08  0.24026045D-08 -0.00000000D+00
  0.00000000D+00  0.00000000D+00 -0.48577438D-06 -0.59805783D-07 -0.59805783D-07
  0.00000000D+00 -0.00000000D+00 -0.00000000D+00
MO   17     MO 0.0        OCC NO =    0.0000000  ORB. ENERGY =    0.031249
 -0.39370175D-02 -0.35953590D-02  0.15495471D-01 -0.13770219D-01  0.82981433D-02
  0.16230838D-02  0.27559761D-02 -0.48902660D-02 -0.74654346D-03  0.10102471D-04
  0.47989346D-04  0.00000000D+00 -0.00000000D+00 -0.87765761D-04 -0.00000000D+00
  0.00000000D+00  0.19242577D-03  0.00000000D+00  0.00000000D+00 -0.48314779D-03
  0.00000000D+00 -0.00000000D+00  0.36562327D-06  0.89839820D-07  0.89839820D-07
  0.00000000D+00 -0.00000000D+00  0.00000000D+00  0.93228791D-06  0.18361096D-05
  0.18361096D-05 -0.00000000D+00 -0.00000000D+00 -0.00000000D+00 -0.39370175D-02
 -0.35953590D-02  0.15495471D-01 -0.13770219D-01  0.82981433D-02  0.16230838D-02
  0.27559761D-02 -0.48902660D-02 -0.74654346D-03  0.10102471D-04 -0.47989346D-04
 -0.00000000D+00  0.00000000D+00  0.87765761D-04  0.00000000D+00 -0.00000000D+00
 -0.19242577D-03 -0.00000000D+00 -0.00000000D+00  0.48314779D-03 -0.00000000D+00
  0.00000000D+00  0.36562327D-06  0.89839820D-07  0.89839820D-07  0.00000000D+00
 -0.00000000D+00 -0.00000000D+00  0.93228791D-06  0.18361096D-05  0.18361096D-05
 -0.00000000D+00 -0.00000000D+00  0.00000000D+00
MO   18     MO 0.0        OCC NO =    0.0000000  ORB. ENERGY =    0.032804
  0.55193739D-03  0.18122252D-02 -0.92158560D-02  0.15781598D-01 -0.13564114D-01
 -0.93114591D-04 -0.54206515D-02  0.78730161D-02  0.49079932D-03  0.21403499D-03
  0.77246560D-05  0.00000000D+00  0.00000000D+00 -0.34098975D-05 -0.00000000D+00
 -0.00000000D+00  0.16941318D-03  0.00000000D+00  0.00000000D+00 -0.50141425D-03
 -0.00000000D+00 -0.00000000D+00  0.14426689D-07 -0.25852132D-07 -0.25852132D-07
  0.00000000D+00  0.00000000D+00 -0.00000000D+00 -0.48440034D-06 -0.60548364D-06
 -0.60548364D-06 -0.00000000D+00 -0.00000000D+00  0.00000000D+00  0.55193739D-03
  0.18122252D-02 -0.92158560D-02  0.15781598D-01 -0.13564114D-01 -0.93114591D-04
 -0.54206515D-02  0.78730161D-02  0.49079932D-03  0.21403499D-03 -0.77246560D-05
 -0.00000000D+00 -0.00000000D+00  0.34098975D-05  0.00000000D+00  0.00000000D+00
 -0.16941318D-03 -0.00000000D+00 -0.00000000D+00  0.50141425D-03  0.00000000D+00
 -0.00000000D+00  0.14426689D-07 -0.25852132D-07 -0.25852132D-07  0.00000000D+00
  0.00000000D+00  0.00000000D+00 -0.48440034D-06 -0.60548364D-06 -0.60548364D-06
 -0.00000000D+00 -0.00000000D+00  0.00000000D+00
MO   19     MO 0.0        OCC NO =    0.0000000  ORB. ENERGY =    0.033577
 -0.71923079D-04  0.15011956D-01  0.18060161D-02 -0.80513195D-02  0.83731642D-02
 -0.92670154D-03  0.35168326D-02 -0.45730548D-02 -0.23052979D-04 -0.20891862D-03
  0.58289515D-06 -0.00000000D+00  0.00000000D+00  0.31858613D-03  0.00000000D+00
 -0.00000000D+00 -0.37203736D-03 -0.00000000D+00  0.00000000D+00  0.57963368D-03
  0.00000000D+00 -0.00000000D+00  0.50215952D-08  0.13779221D-08  0.13779221D-08
 -0.00000000D+00  0.00000000D+00 -0.00000000D+00  0.20207639D-05  0.29450784D-06
  0.29450784D-06  0.00000000D+00 -0.00000000D+00  0.00000000D+00  0.71923079D-04
 -0.15011956D-01 -0.18060161D-02  0.80513195D-02 -0.83731642D-02  0.92670154D-03
 -0.35168326D-02  0.45730548D-02  0.23052979D-04  0.20891862D-03  0.58289515D-06
  0.00000000D+00 -0.00000000D+00  0.31858613D-03 -0.00000000D+00  0.00000000D+00
 -0.37203736D-03  0.00000000D+00 -0.00000000D+00  0.57963368D-03 -0.00000000D+00
  0.00000000D+00 -0.50215952D-08 -0.13779221D-08 -0.13779221D-08 -0.00000000D+00
  0.00000000D+00  0.00000000D+00 -0.20207639D-05 -0.29450784D-06 -0.29450784D-06
  0.00000000D+00 -0.00000000D+00 -0.00000000D+00
MO   20     MO 0.0        OCC NO =    0.0000000  ORB. ENERGY =    0.039594
 -0.80332775D-03 -0.56164909D-02  0.15672326D-01 -0.11887468D-01  0.56353019D-02
  0.29401233D-02  0.13759978D-02 -0.34697058D-02 -0.91758337D-03  0.12877393D-03
  0.50162835D-04 -0.00000000D+00  0.00000000D+00 -0.11301765D-03  0.00000000D+00
 -0.00000000D+00 -0.72140218D-04 -0.00000000D+00  0.00000000D+00  0.76886815D-04
  0.00000000D+00 -0.00000000D+00  0.63109649D-06  0.55514629D-06  0.55514629D-06
 -0.00000000D+00  0.00000000D+00  0.00000000D+00  0.31169514D-05  0.36354102D-05
  0.36354102D-05  0.00000000D+00 -0.00000000D+00 -0.00000000D+00  0.80332775D-03
  0.56164909D-02 -0.15672326D-01  0.11887468D-01 -0.56353019D-02 -0.29401233D-02
 -0.13759978D-02  0.34697058D-02  0.91758337D-03 -0.12877393D-03  0.50162835D-04
  0.00000000D+00 -0.00000000D+00 -0.11301765D-03 -0.00000000D+00  0.00000000D+00
 -0.72140218D-04  0.00000000D+00  0.00000000D+00  0.76886815D-04 -0.00000000D+00
 -0.00000000D+00 -0.63109649D-06 -0.55514629D-06 -0.55514629D-06 -0.00000000D+00
  0.00000000D+00 -0.00000000D+00 -0.31169514D-05 -0.36354102D-05 -0.36354102D-05
  0.00000000D+00 -0.00000000D+00  0.00000000D+00
MO   21     MO 0.0        OCC NO =    0.0000000  ORB. ENERGY =    0.042654
 -0.72460747D-02  0.32428153D-02  0.18501855D-02  0.36835461D-03  0.32102599D-04
 -0.12558563D-02  0.15555815D-03  0.40214384D-03  0.31986852D-03 -0.82998961D-04
  0.94193334D-04  0.00000000D+00 -0.00000000D+00 -0.36712980D-04 -0.00000000D+00
  0.00000000D+00  0.38892436D-04  0.00000000D+00 -0.00000000D+00 -0.23834479D-04
 -0.00000000D+00  0.00000000D+00  0.79305631D-06  0.19800379D-06  0.19800379D-06
  0.00000000D+00 -0.00000000D+00 -0.00000000D+00  0.95317099D-06  0.14818792D-05
  0.14818792D-05 -0.00000000D+00  0.00000000D+00  0.00000000D+00 -0.72460747D-02
  0.32428153D-02  0.18501855D-02  0.36835461D-03  0.32102599D-04 -0.12558563D-02
  0.15555815D-03  0.40214384D-03  0.31986852D-03 -0.82998961D-04 -0.94193334D-04
 -0.00000000D+00  0.00000000D+00  0.36712980D-04  0.00000000D+00  0.00000000D+00
 -0.38892436D-04 -0.00000000D+00 -0.00000000D+00  0.23834479D-04  0.00000000D+00
  0.00000000D+00  0.79305631D-06  0.19800379D-06  0.19800379D-06  0.00000000D+00
 -0.00000000D+00 -0.00000000D+00  0.95317099D-06  0.14818792D-05  0.14818792D-05
 -0.00000000D+00 -0.00000000D+00  0.00000000D+00
MO   22     MO 0.0        OCC NO =    0.0000000  ORB. ENERGY =    0.042698
  0.00000000D+00 -0.00000000D+00 -0.00000000D+00 -0.00000000D+00 -0.00000000D+00
  0.00000000D+00 -0.00000000D+00 -0.00000000D+00 -0.00000000D+00  0.00000000D+00
 -0.00000000D+00 -0.00000000D+00 -0.00000000D+00  0.00000000D+00  0.00000000D+00
  0.00000000D+00 -0.00000000D+00 -0.00000000D+00  0.00000000D+00  0.00000000D+00
  0.00000000D+00 -0.00000000D+00 -0.00000000D+00 -0.53656795D-07  0.53656795D-07
 -0.00000000D+00 -0.00000000D+00 -0.71523415D-09 -0.00000000D+00  0.68588692D-06
 -0.68588692D-06  0.00000000D+00  0.00000000D+00  0.91427410D-08  0.00000000D+00
 -0.00000000D+00 -0.00000000D+00 -0.00000000D+00 -0.00000000D+00  0.00000000D+00
 -0.00000000D+00 -0.00000000D+00 -0.00000000D+00  0.00000000D+00  0.00000000D+00
  0.00000000D+00  0.00000000D+00 -0.00000000D+00 -0.00000000D+00 -0.00000000D+00
  0.00000000D+00  0.00000000D+00  0.00000000D+00 -0.00000000D+00 -0.00000000D+00
 -0.00000000D+00 -0.00000000D+00 -0.53656795D-07  0.53656795D-07 -0.00000000D+00
 -0.00000000D+00 -0.71523415D-09 -0.00000000D+00  0.68588692D-06 -0.68588692D-06
  0.00000000D+00  0.00000000D+00  0.91427410D-08
MO   23     MO 0.0        OCC NO =    0.0000000  ORB. ENERGY =    0.042698
 -0.00000000D+00  0.00000000D+00 -0.00000000D+00  0.00000000D+00 -0.00000000D+00
 -0.00000000D+00  0.00000000D+00  0.00000000D+00  0.00000000D+00 -0.00000000D+00
  0.00000000D+00 -0.00000000D+00 -0.00000000D+00  0.00000000D+00  0.00000000D+00
  0.00000000D+00  0.00000000D+00 -0.00000000D+00 -0.00000000D+00 -0.00000000D+00
  0.00000000D+00  0.00000000D+00  0.00000000D+00 -0.35761787D-09  0.35761787D-09
 -0.00000000D+00 -0.00000000D+00  0.10731359D-06  0.00000000D+00  0.45713697D-08
 -0.45713697D-08  0.00000000D+00  0.00000000D+00 -0.13717739D-05 -0.00000000D+00
 -0.00000000D+00  0.00000000D+00 -0.00000000D+00  0.00000000D+00  0.00000000D+00
  0.00000000D+00 -0.00000000D+00 -0.00000000D+00  0.00000000D+00 -0.00000000D+00
  0.00000000D+00  0.00000000D+00  0.00000000D+00 -0.00000000D+00 -0.00000000D+00
 -0.00000000D+00  0.00000000D+00  0.00000000D+00  0.00000000D+00 -0.00000000D+00
 -0.00000000D+00  0.00000000D+00 -0.35761787D-09  0.35761787D-09 -0.00000000D+00
 -0.00000000D+00  0.10731359D-06 -0.00000000D+00  0.45713697D-08 -0.45713697D-08
  0.00000000D+00  0.00000000D+00 -0.13717739D-05
MO   24     MO 0.0        OCC NO =    0.0000000  ORB. ENERGY =    0.043022
 -0.34407765D-03  0.50391004D-01 -0.13683286D-01  0.11959943D-01 -0.35349365D-02
 -0.79174182D-02 -0.28543091D-04  0.39598843D-02  0.20789038D-02 -0.47476874D-03
  0.76900974D-05 -0.00000000D+00  0.00000000D+00  0.79946812D-03  0.00000000D+00
 -0.00000000D+00  0.48431653D-04 -0.00000000D+00  0.00000000D+00 -0.87950693D-04
  0.00000000D+00 -0.00000000D+00  0.17021916D-06  0.22123059D-06  0.22123059D-06
 -0.00000000D+00  0.00000000D+00 -0.00000000D+00  0.39779595D-05 -0.90308397D-06
 -0.90308397D-06  0.00000000D+00 -0.00000000D+00  0.00000000D+00  0.34407765D-03
 -0.50391004D-01  0.13683286D-01 -0.11959943D-01  0.35349365D-02  0.79174182D-02
  0.28543091D-04 -0.39598843D-02 -0.20789038D-02  0.47476874D-03  0.76900974D-05
  0.00000000D+00 -0.00000000D+00  0.79946812D-03 -0.00000000D+00  0.00000000D+00