[Molden Format]
[Title]
 Molden2AIM, Version 3.1.0 (02/25/2015)           Time: Thu Oct 17 19:52:48 2024

[Atoms] AU
E+       1       4     0.00000000     0.00000000     0.00000000
E+       2       4    11.60000000     0.00000000     0.00000000
[GTO]
    1 0
 S   1 1.0
    0.1000000000D-03      0.1000000000D+01
 S   1 1.0
    0.3000000000D-03      0.1000000000D+01
 S   1 1.0
    0.9000000000D-03      0.1000000000D+01
 S   1 1.0
    0.2700000000D-02      0.1000000000D+01
 S   1 1.0
    0.8100000000D-02      0.1000000000D+01
 S   1 1.0
    0.2430000000D-01      0.1000000000D+01
 S   1 1.0
    0.7290000000D-01      0.1000000000D+01
 S   1 1.0
    0.2187000000D+00      0.1000000000D+01
 S   1 1.0
    0.6561000000D+00      0.1000000000D+01
 S   1 1.0
    0.1968300000D+01      0.1000000000D+01
 P   1 1.0
    0.1000000000D-03      0.1000000000D+01
 P   1 1.0
    0.3000000000D-03      0.1000000000D+01
 P   1 1.0
    0.9000000000D-03      0.1000000000D+01
 P   1 1.0
    0.2700000000D-02      0.1000000000D+01
 D   1 1.0
    0.1000000000D-03      0.1000000000D+01
 D   1 1.0
    0.3000000000D-03      0.1000000000D+01

    2 0
 S   1 1.0
    0.1000000000D-03      0.1000000000D+01
 S   1 1.0
    0.3000000000D-03      0.1000000000D+01
 S   1 1.0
    0.9000000000D-03      0.1000000000D+01
 S   1 1.0
    0.2700000000D-02      0.1000000000D+01
 S   1 1.0
    0.8100000000D-02      0.1000000000D+01
 S   1 1.0
    0.2430000000D-01      0.1000000000D+01
 S   1 1.0
    0.7290000000D-01      0.1000000000D+01
 S   1 1.0
    0.2187000000D+00      0.1000000000D+01
 S   1 1.0
    0.6561000000D+00      0.1000000000D+01
 S   1 1.0
    0.1968300000D+01      0.1000000000D+01
 P   1 1.0
    0.1000000000D-03      0.1000000000D+01
 P   1 1.0
    0.3000000000D-03      0.1000000000D+01
 P   1 1.0
    0.9000000000D-03      0.1000000000D+01
 P   1 1.0
    0.2700000000D-02      0.1000000000D+01
 D   1 1.0
    0.1000000000D-03      0.1000000000D+01
 D   1 1.0
    0.3000000000D-03      0.1000000000D+01


[MO]
 Ene=         -0.00828240
 Spin= Alpha
 Occup=        1.00000000
    1       -0.0101778100
    2       -0.1117310600
    3        0.0304679800
    4        0.0968679800
    5        0.2473822200
    6        0.2285905400
    7        0.1212883500
    8       -0.1048654800
    9       -0.0079223400
   10        0.0002204600
   11       -0.0063394700
   12        0.0000000000
   13        0.0000000000
   14        0.4763791500
   15       -0.0000000000
   16       -0.0000000000
   17       -0.0232410500
   18        0.0000000000
   19        0.0000000000
   20        0.0296091400
   21       -0.0000000000
   22       -0.0000000000
   23        0.0009807700
   24        0.0014644300
   25        0.0014644300
   26        0.0000000000
   27        0.0000000000
   28       -0.0000000000
   29        0.0886634000
   30        0.0063611200
   31        0.0063611200
   32       -0.0000000000
   33       -0.0000000000
   34        0.0000000000
   35       -0.0101778100
   36       -0.1117310600
   37        0.0304679800
   38        0.0968679800
   39        0.2473822200
   40        0.2285905400
   41        0.1212883500
   42       -0.1048654800
   43       -0.0079223400
   44        0.0002204600
   45        0.0063394700
   46       -0.0000000000
   47       -0.0000000000
   48       -0.4763791500
   49        0.0000000000
   50        0.0000000000
   51        0.0232410500
   52       -0.0000000000
   53       -0.0000000000
   54       -0.0296091400
   55        0.0000000000
   56        0.0000000000
   57        0.0009807700
   58        0.0014644300
   59        0.0014644300
   60        0.0000000000
   61        0.0000000000
   62        0.0000000000
   63        0.0886634000
   64        0.0063611200
   65        0.0063611200
   66       -0.0000000000
   67       -0.0000000000
   68       -0.0000000000
 Ene=          0.00171164
 Spin= Alpha
 Occup=        0.00000000
    1       -0.0043664400
    2       -0.0022223400
    3        9.4224206600
    4       -0.7465716800
    5        0.3971464000
    6        0.1300719000
    7        0.0865079900
    8       -0.0710864800
    9       -0.0050065200
   10        0.0000886600
   11        0.0665346400
   12        0.0000000000
   13       -0.0000000000
   14        0.0348489100
   15       -0.0000000000
   16       -0.0000000000
   17        1.3671445400
   18        0.0000000000
   19        0.0000000000
   20       -0.3557724400
   21       -0.0000000000
   22       -0.0000000000
   23        0.1904446600
   24        0.2357726300
   25        0.2357726300
   26        0.0000000000
   27       -0.0000000000
   28       -0.0000000000
   29        0.4094628500
   30        0.3350529100
   31        0.3350529100
   32       -0.0000000000
   33       -0.0000000000
   34       -0.0000000000
   35        0.0043664400
   36        0.0022223400
   37       -9.4224206600
   38        0.7465716800
   39       -0.3971464000
   40       -0.1300719000
   41       -0.0865079900
   42        0.0710864800
   43        0.0050065200
   44       -0.0000886600
   45        0.0665346400
   46       -0.0000000000
   47        0.0000000000
   48        0.0348489100
   49        0.0000000000
   50        0.0000000000
   51        1.3671445400
   52       -0.0000000000
   53       -0.0000000000
   54       -0.3557724400
   55        0.0000000000
   56        0.0000000000
   57       -0.1904446600
   58       -0.2357726300
   59       -0.2357726300
   60        0.0000000000
   61       -0.0000000000
   62        0.0000000000
   63       -0.4094628500
   64       -0.3350529100
   65       -0.3350529100
   66       -0.0000000000
   67       -0.0000000000
   68        0.0000000000
 Ene=          0.00260535
 Spin= Alpha
 Occup=        0.00000000
    1       -0.1618208300
    2       -0.0344268700
    3        1.1890232400
    4       -0.7065717700
    5        0.1259727400
    6       -0.1220560500
    7       -0.0056054300
    8        0.0166271600
    9        0.0031555600
   10       -0.0003042200
   11       -0.0050865600
   12       -0.0000000000
   13       -0.0000000000
   14       -1.5019375900
   15        0.0000000000
   16        0.0000000000
   17        0.2057392700
   18       -0.0000000000
   19       -0.0000000000
   20       -0.0276889400
   21        0.0000000000
   22        0.0000000000
   23        0.0213829800
   24        0.0229245700
   25        0.0229245700
   26       -0.0000000000
   27       -0.0000000000
   28        0.0000000000
   29       -0.1541998700
   30        0.1021841600
   31        0.1021841600
   32        0.0000000000
   33        0.0000000000
   34       -0.0000000000
   35       -0.1618208300
   36       -0.0344268700
   37        1.1890232400
   38       -0.7065717700
   39        0.1259727400
   40       -0.1220560500
   41       -0.0056054300
   42        0.0166271600
   43        0.0031555600
   44       -0.0003042200
   45        0.0050865600
   46        0.0000000000
   47        0.0000000000
   48        1.5019375900
   49       -0.0000000000
   50       -0.0000000000
   51       -0.2057392700
   52        0.0000000000
   53        0.0000000000
   54        0.0276889400
   55       -0.0000000000
   56       -0.0000000000
   57        0.0213829800
   58        0.0229245700
   59        0.0229245700
   60       -0.0000000000
   61       -0.0000000000
   62       -0.0000000000
   63       -0.1541998700
   64        0.1021841600
   65        0.1021841600
   66        0.0000000000
   67        0.0000000000
   68        0.0000000000
 Ene=          0.00357896
 Spin= Alpha
 Occup=        0.00000000
    1       -0.0000000000
    2       -0.0000000000
    3       -0.0000000000
    4        0.0000000000
    5       -0.0000000000
    6        0.0000000000
    7        0.0000000000
    8       -0.0000000000
    9        0.0000000000
   10       -0.0000000000
   11       -0.0000000000
   12        0.0257620000
   13       -0.0107784700
   14        0.0000000000
   15       -0.1109891200
   16        0.0464363300
   17       -0.0000000000
   18        0.5154531600
   19       -0.2156585500
   20        0.0000000000
   21        0.0310588100
   22       -0.0129945800
   23        0.0000000000
   24        0.0000000000
   25       -0.0000000000
   26        0.1256155900
   27       -0.0525558500
   28        0.0000000000
   29        0.0000000000
   30        0.0000000000
   31        0.0000000000
   32       -0.0663272200
   33        0.0277504000
   34       -0.0000000000
   35       -0.0000000000
   36       -0.0000000000
   37        0.0000000000
   38       -0.0000000000
   39        0.0000000000
   40       -0.0000000000
   41       -0.0000000000
   42        0.0000000000
   43        0.0000000000
   44        0.0000000000
   45        0.0000000000
   46        0.0257620000
   47       -0.0107784700
   48       -0.0000000000
   49       -0.1109891200
   50        0.0464363300
   51       -0.0000000000
   52        0.5154531600
   53       -0.2156585500
   54        0.0000000000
   55        0.0310588100
   56       -0.0129945800
   57       -0.0000000000
   58       -0.0000000000
   59        0.0000000000
   60       -0.1256155900
   61        0.0525558500
   62       -0.0000000000
   63        0.0000000000
   64       -0.0000000000
   65       -0.0000000000
   66        0.0663272200
   67       -0.0277504000
   68        0.0000000000
 Ene=          0.00357896
 Spin= Alpha
 Occup=        0.00000000
    1       -0.0000000000
    2       -0.0000000000
    3       -0.0000000000
    4        0.0000000000
    5       -0.0000000000
    6        0.0000000000
    7        0.0000000000
    8       -0.0000000000
    9       -0.0000000000
   10       -0.0000000000
   11       -0.0000000000
   12       -0.0107784700
   13       -0.0257620000
   14        0.0000000000
   15        0.0464363300
   16        0.1109891200
   17       -0.0000000000
   18       -0.2156585500
   19       -0.5154531600
   20       -0.0000000000
   21       -0.0129945800
   22       -0.0310588100
   23        0.0000000000
   24        0.0000000000
   25        0.0000000000
   26       -0.0525558500
   27       -0.1256155900
   28        0.0000000000
   29        0.0000000000
   30        0.0000000000
   31        0.0000000000
   32        0.0277504000
   33        0.0663272200
   34       -0.0000000000
   35       -0.0000000000
   36       -0.0000000000
   37        0.0000000000
   38       -0.0000000000
   39        0.0000000000
   40       -0.0000000000
   41       -0.0000000000
   42        0.0000000000
   43        0.0000000000
   44        0.0000000000
   45        0.0000000000
   46       -0.0107784700
   47       -0.0257620000
   48       -0.0000000000
   49        0.0464363300
   50        0.1109891200
   51       -0.0000000000
   52       -0.2156585500
   53       -0.5154531600
   54       -0.0000000000
   55       -0.0129945800
   56       -0.0310588100
   57       -0.0000000000
   58       -0.0000000000
   59       -0.0000000000
   60        0.0525558500
   61        0.1256155900
   62       -0.0000000000
   63        0.0000000000
   64       -0.0000000000
   65       -0.0000000000
   66       -0.0277504000
   67       -0.0663272200
   68        0.0000000000
 Ene=          0.00517880
 Spin= Alpha
 Occup=        0.00000000
    1        0.0105613000
    2        0.0058584800
    3      -24.3475589500
    4        2.4252962400
    5        0.2158858300
    6        0.1558953400
    7        0.0678886700
    8       -0.0611011200
    9       -0.0051519200
   10        0.0001934500
   11       -0.1605776200
   12       -0.0000000000
   13        0.0000000000
   14       -0.0944030800
   15        0.0000000000
   16        0.0000000000
   17       -3.4958651100
   18       -0.0000000000
   19       -0.0000000000
   20        0.3153831200
   21        0.0000000000
   22        0.0000000000
   23       -0.4600481500
   24       -0.5675590800
   25       -0.5675590800
   26       -0.0000000000
   27        0.0000000000
   28       -0.0000000000
   29       -1.0041183900
   30       -0.8262754200
   31       -0.8262754200
   32        0.0000000000
   33        0.0000000000
   34        0.0000000000
   35       -0.0105613000
   36       -0.0058584800
   37       24.3475589500
   38       -2.4252962400
   39       -0.2158858300
   40       -0.1558953400
   41       -0.0678886700
   42        0.0611011200
   43        0.0051519200
   44       -0.0001934500
   45       -0.1605776200
   46        0.0000000000
   47       -0.0000000000
   48       -0.0944030800
   49       -0.0000000000
   50       -0.0000000000
   51       -3.4958651100
   52        0.0000000000
   53        0.0000000000
   54        0.3153831200
   55       -0.0000000000
   56       -0.0000000000
   57        0.4600481500
   58        0.5675590800
   59        0.5675590800
   60       -0.0000000000
   61        0.0000000000
   62        0.0000000000
   63        1.0041183900
   64        0.8262754200
   65        0.8262754200
   66        0.0000000000
   67        0.0000000000
   68       -0.0000000000
 Ene=          0.00669656
 Spin= Alpha
 Occup=        0.00000000
    1        0.3036742800
    2        5.5049649900
    3       -0.3845277500
    4       -0.6202196400
    5        0.0963589400
    6       -0.0276446600
    7        0.0129500400
    8       -0.0055701700
    9        0.0004319200
   10       -0.0001110800
   11        0.3011127600
   12       -0.0000000000
   13       -0.0000000000
   14      -24.8376692000
   15        0.0000000000
   16        0.0000000000
   17        2.1144424200
   18       -0.0000000000
   19       -0.0000000000
   20        0.5184241900
   21       -0.0000000000
   22       -0.0000000000
   23       -0.0263527800
   24       -0.0416806800
   25       -0.0416806800
   26       -0.0000000000
   27       -0.0000000000
   28        0.0000000000
   29       -4.4761023300
   30       -0.2133191100
   31       -0.2133191100
   32        0.0000000000
   33        0.0000000000
   34        0.0000000000
   35        0.3036742900
   36        5.5049649900
   37       -0.3845277500
   38       -0.6202196400
   39        0.0963589400
   40       -0.0276446600
   41        0.0129500400
   42       -0.0055701700
   43        0.0004319200
   44       -0.0001110800
   45       -0.3011127600
   46        0.0000000000
   47        0.0000000000
   48       24.8376692000
   49       -0.0000000000
   50       -0.0000000000
   51       -2.1144424200
   52        0.0000000000
   53        0.0000000000
   54       -0.5184241900
   55        0.0000000000
   56        0.0000000000
   57       -0.0263527800
   58       -0.0416806800
   59       -0.0416806800
   60       -0.0000000000
   61       -0.0000000000
   62       -0.0000000000
   63       -4.4761023300
   64       -0.2133191100
   65       -0.2133191100
   66        0.0000000000
   67        0.0000000000
   68       -0.0000000000
 Ene=          0.00682437
 Spin= Alpha
 Occup=        0.00000000
    1        0.0000000000
    2       -0.0000000000
    3        0.0000000000
    4       -0.0000000000
    5        0.0000000000
    6       -0.0000000000
    7        0.0000000000
    8       -0.0000000000
    9        0.0000000000
   10       -0.0000000000
   11        0.0000000000
   12        0.0012216200
   13        0.0002846400
   14        0.0000000000
   15       -0.0032507600
   16       -0.0007574300
   17        0.0000000000
   18        2.3227478900
   19        0.5411997900
   20        0.0000000000
   21        0.6185475100
   22        0.1441214400
   23       -0.0000000000
   24       -0.0000000000
   25       -0.0000000000
   26       -0.0322711700
   27       -0.0075191800
   28        0.0000000000
   29        0.0000000000
   30       -0.0000000000
   31       -0.0000000000
   32        0.0954231100
   33        0.0222335600
   34       -0.0000000000
   35        0.0000000000
   36       -0.0000000000
   37       -0.0000000000
   38       -0.0000000000
   39        0.0000000000
   40       -0.0000000000
   41        0.0000000000
   42       -0.0000000000
   43        0.0000000000
   44       -0.0000000000
   45       -0.0000000000
   46       -0.0012216200
   47       -0.0002846400
   48       -0.0000000000
   49        0.0032507600
   50        0.0007574300
   51       -0.0000000000
   52       -2.3227478900
   53       -0.5411997900
   54       -0.0000000000
   55       -0.6185475100
   56       -0.1441214400
   57       -0.0000000000
   58       -0.0000000000
   59       -0.0000000000
   60       -0.0322711700
   61       -0.0075191800
   62       -0.0000000000
   63        0.0000000000
   64       -0.0000000000
   65       -0.0000000000
   66        0.0954231100
   67        0.0222335600
   68        0.0000000000
 Ene=          0.00682437
 Spin= Alpha
 Occup=        0.00000000
    1       -0.0000000000
    2        0.0000000000
    3       -0.0000000000
    4        0.0000000000
    5       -0.0000000000
    6        0.0000000000
    7       -0.0000000000
    8        0.0000000000
    9       -0.0000000000
   10        0.0000000000
   11        0.0000000000
   12       -0.0002846400
   13        0.0012216200
   14       -0.0000000000
   15        0.0007574300
   16       -0.0032507600
   17       -0.0000000000
   18       -0.5411997900
   19        2.3227478900
   20       -0.0000000000
   21       -0.1441214400
   22        0.6185475100
   23        0.0000000000
   24        0.0000000000
   25        0.0000000000
   26        0.0075191800
   27       -0.0322711700
   28       -0.0000000000
   29       -0.0000000000
   30        0.0000000000
   31        0.0000000000
   32       -0.0222335600
   33        0.0954231100
   34        0.0000000000
   35       -0.0000000000
   36        0.0000000000
   37        0.0000000000
   38        0.0000000000
   39       -0.0000000000
   40        0.0000000000
   41       -0.0000000000
   42        0.0000000000
   43       -0.0000000000
   44        0.0000000000
   45       -0.0000000000
   46        0.0002846400
   47       -0.0012216200
   48        0.0000000000
   49       -0.0007574300
   50        0.0032507600
   51        0.0000000000
   52        0.5411997900
   53       -2.3227478900
   54        0.0000000000
   55        0.1441214400
   56       -0.6185475100
   57        0.0000000000
   58        0.0000000000
   59        0.0000000000
   60        0.0075191800
   61       -0.0322711700
   62        0.0000000000
   63       -0.0000000000
   64        0.0000000000
   65        0.0000000000
   66       -0.0222335600
   67        0.0954231100
   68       -0.0000000000
 Ene=          0.00922636
 Spin= Alpha
 Occup=        0.00000000
    1       -0.0000000000
    2       -0.0000000000
    3        0.0000000000
    4        0.0000000000
    5        0.0000000000
    6        0.0000000000
    7        0.0000000000
    8       -0.0000000000
    9       -0.0000000000
   10       -0.0000000000
   11       -0.0000000000
   12        0.0115434600
   13        0.0256527200
   14        0.0000000000
   15       -0.0501709500
   16       -0.1114935600
   17        0.0000000000
   18        0.2722944500
   19        0.6051126200
   20        0.0000000000
   21       -0.3189183200
   22       -0.7087235800
   23       -0.0000000000
   24       -0.0000000000
   25       -0.0000000000
   26        0.0505211900
   27        0.1122718800
   28        0.0000000000
   29        0.0000000000
   30       -0.0000000000
   31       -0.0000000000
   32       -0.0242638100
   33       -0.0539208200
   34       -0.0000000000
   35       -0.0000000000
   36       -0.0000000000
   37       -0.0000000000
   38       -0.0000000000
   39       -0.0000000000
   40       -0.0000000000
   41       -0.0000000000
   42        0.0000000000
   43        0.0000000000
   44        0.0000000000
   45       -0.0000000000
   46        0.0115434600
   47        0.0256527200
   48       -0.0000000000
   49       -0.0501709500
   50       -0.1114935600
   51        0.0000000000
   52        0.2722944500
   53        0.6051126200
   54        0.0000000000
   55       -0.3189183200
   56       -0.7087235800
   57        0.0000000000
   58        0.0000000000
   59        0.0000000000
   60       -0.0505211900
   61       -0.1122718800
   62       -0.0000000000
   63        0.0000000000
   64        0.0000000000
   65        0.0000000000
   66        0.0242638100
   67        0.0539208200
   68        0.0000000000
 Ene=          0.00922636
 Spin= Alpha
 Occup=        0.00000000
    1       -0.0000000000
    2        0.0000000000
    3       -0.0000000000
    4       -0.0000000000
    5        0.0000000000
    6       -0.0000000000
    7       -0.0000000000
    8        0.0000000000
    9        0.0000000000
   10       -0.0000000000
   11        0.0000000000
   12       -0.0256527200
   13        0.0115434600
   14       -0.0000000000
   15        0.1114935600
   16       -0.0501709500
   17       -0.0000000000
   18       -0.6051126200
   19        0.2722944500
   20       -0.0000000000
   21        0.7087235800
   22       -0.3189183200
   23        0.0000000000
   24       -0.0000000000
   25       -0.0000000000
   26       -0.1122718800
   27        0.0505211900
   28       -0.0000000000
   29       -0.0000000000
   30        0.0000000000
   31        0.0000000000
   32        0.0539208200
   33       -0.0242638100
   34        0.0000000000
   35       -0.0000000000
   36        0.0000000000
   37        0.0000000000
   38        0.0000000000
   39        0.0000000000
   40        0.0000000000
   41        0.0000000000
   42       -0.0000000000
   43        0.0000000000
   44       -0.0000000000
   45       -0.0000000000
   46       -0.0256527200
   47        0.0115434600
   48        0.0000000000
   49        0.1114935600
   50       -0.0501709500
   51       -0.0000000000
   52       -0.6051126200
   53        0.2722944500
   54       -0.0000000000
   55        0.7087235800
   56       -0.3189183200
   57       -0.0000000000
   58        0.0000000000
   59        0.0000000000
   60        0.1122718800
   61       -0.0505211900
   62        0.0000000000
   63       -0.0000000000
   64       -0.0000000000
   65       -0.0000000000
   66       -0.0539208200
   67        0.0242638100
   68       -0.0000000000
 Ene=          0.01045610
 Spin= Alpha
 Occup=        0.00000000
    1        0.0034470200
    2        0.0715867900
    3      102.5754511700
    4       17.7325399500
    5       -0.1788245200
    6        0.0648529400
    7        0.0063771700
    8       -0.0104717300
    9       -0.0015290000
   10        0.0001233800
   11       -0.0673448000
   12        0.0000000000
   13       -0.0000000000
   14       -0.2784563800
   15       -0.0000000000
   16       -0.0000000000
   17       18.0541717600
   18        0.0000000000
   19        0.0000000000
   20        6.4535880700
   21       -0.0000000000
   22        0.0000000000
   23       -0.4842944800
   24        0.0119511900
   25        0.0119511900
   26        0.0000000000
   27       -0.0000000000
   28        0.0000000000
   29       -0.4799355400
   30       -1.2319219300
   31       -1.2319219300
   32       -0.0000000000
   33       -0.0000000000
   34       -0.0000000000
   35       -0.0034470200
   36       -0.0715867800
   37     -102.5754511700
   38      -17.7325399500
   39        0.1788245200
   40       -0.0648529400
   41       -0.0063771700
   42        0.0104717300
   43        0.0015290000
   44       -0.0001233800
   45       -0.0673448000
   46       -0.0000000000
   47        0.0000000000
   48       -0.2784563800
   49        0.0000000000
   50        0.0000000000
   51       18.0541717600
   52       -0.0000000000
   53       -0.0000000000
   54        6.4535880700
   55        0.0000000000
   56        0.0000000000
   57        0.4842944800
   58       -0.0119511900
   59       -0.0119511900
   60        0.0000000000
   61       -0.0000000000
   62       -0.0000000000
   63        0.4799355400
   64        1.2319219300
   65        1.2319219300
   66       -0.0000000000
   67       -0.0000000000
   68        0.0000000000
 Ene=          0.01122270
 Spin= Alpha
 Occup=        0.00000000
    1       -0.1170808600
    2        2.4446741900
    3       -0.8806952500
    4        1.6328185600
    5       -1.0195259200
    6        0.0790887400
    7       -0.1036195000
    8        0.0602132900
    9        0.0001706200
   10        0.0005142600
   11        0.1049953500
   12       -0.0000000000
   13       -0.0000000000
   14      -11.4810413500
   15        0.0000000000
   16        0.0000000000
   17        0.5984076300
   18       -0.0000000000
   19       -0.0000000000
   20       -0.1880002700
   21        0.0000000000
   22        0.0000000000
   23        0.0279799900
   24        0.0188023600
   25        0.0188023600
   26       -0.0000000000
   27       -0.0000000000
   28        0.0000000000
   29       -1.9798884000
   30        0.0091128500
   31        0.0091128500
   32        0.0000000000
   33        0.0000000000
   34        0.0000000000
   35       -0.1170808600
   36        2.4446741900
   37       -0.8806952500
   38        1.6328185600
   39       -1.0195259200
   40        0.0790887400
   41       -0.1036195000
   42        0.0602132900
   43        0.0001706200
   44        0.0005142600
   45       -0.1049953500
   46        0.0000000000
   47        0.0000000000
   48       11.4810413500
   49       -0.0000000000
   50       -0.0000000000
   51       -0.5984076300
   52        0.0000000000
   53        0.0000000000
   54        0.1880002700
   55       -0.0000000000
   56       -0.0000000000
   57        0.0279799900
   58        0.0188023600
   59        0.0188023600
   60       -0.0000000000
   61       -0.0000000000
   62       -0.0000000000
   63       -1.9798884000
   64        0.0091128500
   65        0.0091128500
   66        0.0000000000
   67        0.0000000000
   68       -0.0000000000
 Ene=          0.01472630
 Spin= Alpha
 Occup=        0.00000000
    1        0.0000000000
    2        0.0000000000
    3       -0.0000000000
    4        0.0000000000
    5        0.0000000000
    6       -0.0000000000
    7        0.0000000000
    8       -0.0000000000
    9        0.0000000000
   10       -0.0000000000
   11        0.0000000000
   12       -0.0011242900
   13       -0.0001758300
   14       -0.0000000000
   15        0.0008457700
   16        0.0001322700
   17        0.0000000000
   18       -3.5022476400
   19       -0.5477241800
   20       -0.0000000000
   21        2.1510525200
   22        0.3364078100
   23        0.0000000000
   24       -0.0000000000
   25       -0.0000000000
   26        0.0393273000
   27        0.0061504800
   28       -0.0000000000
   29       -0.0000000000
   30       -0.0000000000
   31       -0.0000000000
   32       -0.1188486800
   33       -0.0185870100
   34        0.0000000000
   35        0.0000000000
   36        0.0000000000
   37        0.0000000000
   38       -0.0000000000
   39        0.0000000000
   40       -0.0000000000
   41        0.0000000000
   42       -0.0000000000
   43        0.0000000000
   44       -0.0000000000
   45       -0.0000000000
   46        0.0011242900
   47        0.0001758300
   48        0.0000000000
   49       -0.0008457700
   50       -0.0001322700
   51       -0.0000000000
   52        3.5022476400
   53        0.5477241800
   54        0.0000000000
   55       -2.1510525200
   56       -0.3364078100
   57       -0.0000000000
   58       -0.0000000000
   59       -0.0000000000
   60        0.0393273000
   61        0.0061504800
   62        0.0000000000
   63       -0.0000000000
   64       -0.0000000000
   65       -0.0000000000
   66       -0.1188486800
   67       -0.0185870100
   68       -0.0000000000
 Ene=          0.01472630
 Spin= Alpha
 Occup=        0.00000000
    1        0.0000000000
    2        0.0000000000
    3       -0.0000000000
    4        0.0000000000
    5        0.0000000000
    6       -0.0000000000
    7        0.0000000000
    8       -0.0000000000
    9        0.0000000000
   10       -0.0000000000
   11        0.0000000000
   12       -0.0001758300
   13        0.0011242900
   14       -0.0000000000
   15        0.0001322700
   16       -0.0008457700
   17       -0.0000000000
   18       -0.5477241800
   19        3.5022476400
   20       -0.0000000000
   21        0.3364078100
   22       -2.1510525200
   23        0.0000000000
   24        0.0000000000
   25        0.0000000000
   26        0.0061504800
   27       -0.0393273000
   28       -0.0000000000
   29       -0.0000000000
   30        0.0000000000
   31        0.0000000000
   32       -0.0185870100
   33        0.1188486800
   34        0.0000000000
   35        0.0000000000
   36        0.0000000000
   37        0.0000000000
   38       -0.0000000000
   39        0.0000000000
   40       -0.0000000000
   41        0.0000000000
   42       -0.0000000000
   43        0.0000000000
   44       -0.0000000000
   45       -0.0000000000
   46        0.0001758300
   47       -0.0011242900
   48        0.0000000000
   49       -0.0001322700
   50        0.0008457700
   51       -0.0000000000
   52        0.5477241800
   53       -3.5022476400
   54        0.0000000000
   55       -0.3364078100
   56        2.1510525200
   57       -0.0000000000
   58       -0.0000000000
   59       -0.0000000000
   60        0.0061504800
   61       -0.0393273000
   62        0.0000000000
   63       -0.0000000000
   64       -0.0000000000
   65       -0.0000000000
   66       -0.0185870100
   67        0.1188486800
   68       -0.0000000000
 Ene=          0.01483500
 Spin= Alpha
 Occup=        0.00000000
    1        0.6046283800
    2        5.7476341200
    3       -1.3834826200
    4       -0.0296484500
    5        0.6238730500
    6       -0.0737787100
    7        0.0469935500
    8       -0.0234279700
    9        0.0008655000
   10       -0.0003339500
   11        0.3276534700
   12       -0.0000000000
   13       -0.0000000000
   14      -23.6441097300
   15        0.0000000000
   16        0.0000000000