[Molden Format]
[Atoms] AU
E+       1       4     0.00000000     0.00000000     0.00000000
E+       2       4    45.20000000     0.00000000     0.00000000
[GTO]
  1 0
s  1 1.00
   1.0000000000E-04   1.0000000000E+00
s  1 1.00
   3.0000000000E-04   1.0000000000E+00
s  1 1.00
   9.0000000000E-04   1.0000000000E+00
s  1 1.00
   2.7000000000E-03   1.0000000000E+00
s  1 1.00
   8.1000000000E-03   1.0000000000E+00
s  1 1.00
   2.4300000000E-02   1.0000000000E+00
s  1 1.00
   7.2900000000E-02   1.0000000000E+00
s  1 1.00
   2.1870000000E-01   1.0000000000E+00
s  1 1.00
   6.5610000000E-01   1.0000000000E+00
s  1 1.00
   1.9683000000E+00   1.0000000000E+00
p  1 1.00
   1.0000000000E-04   1.0000000000E+00
p  1 1.00
   3.0000000000E-04   1.0000000000E+00
p  1 1.00
   9.0000000000E-04   1.0000000000E+00
p  1 1.00
   2.7000000000E-03   1.0000000000E+00
d  1 1.00
   1.0000000000E-04   1.0000000000E+00
d  1 1.00
   3.0000000000E-04   1.0000000000E+00
 
  2 0
s  1 1.00
   1.0000000000E-04   1.0000000000E+00
s  1 1.00
   3.0000000000E-04   1.0000000000E+00
s  1 1.00
   9.0000000000E-04   1.0000000000E+00
s  1 1.00
   2.7000000000E-03   1.0000000000E+00
s  1 1.00
   8.1000000000E-03   1.0000000000E+00
s  1 1.00
   2.4300000000E-02   1.0000000000E+00
s  1 1.00
   7.2900000000E-02   1.0000000000E+00
s  1 1.00
   2.1870000000E-01   1.0000000000E+00
s  1 1.00
   6.5610000000E-01   1.0000000000E+00
s  1 1.00
   1.9683000000E+00   1.0000000000E+00
p  1 1.00
   1.0000000000E-04   1.0000000000E+00
p  1 1.00
   3.0000000000E-04   1.0000000000E+00
p  1 1.00
   9.0000000000E-04   1.0000000000E+00
p  1 1.00
   2.7000000000E-03   1.0000000000E+00
d  1 1.00
   1.0000000000E-04   1.0000000000E+00
d  1 1.00
   3.0000000000E-04   1.0000000000E+00
 
 
[MO]
Ene=    -2.07205E-03
Spin= Alpha
Occup=   1.0000000000
   1       0.00094005
   2       0.03560852
   3      -0.05491275
   4      -0.21591710
   5      -0.27427248
   6      -0.19230056
   7      -0.11727644
   8       0.09510935
   9       0.00656521
  10      -0.00009996
  11       0.01724256
  12       0.00000000
  13       0.00000000
  14      -0.01608016
  15      -0.00000000
  16      -0.00000000
  17       0.00277546
  18       0.00000000
  19       0.00000000
  20      -0.12223347
  21      -0.00000000
  22      -0.00000000
  23       0.00661268
  24      -0.00136770
  25      -0.00136770
  26       0.00000000
  27       0.00000000
  28      -0.00000000
  29      -0.01871895
  30      -0.00644435
  31      -0.00644435
  32      -0.00000000
  33      -0.00000000
  34       0.00000000
  35       0.00094005
  36       0.03560851
  37      -0.05491275
  38      -0.21591710
  39      -0.27427248
  40      -0.19230056
  41      -0.11727644
  42       0.09510935
  43       0.00656521
  44      -0.00009996
  45      -0.01724256
  46      -0.00000000
  47      -0.00000000
  48       0.01608016
  49       0.00000000
  50       0.00000000
  51      -0.00277546
  52      -0.00000000
  53      -0.00000000
  54       0.12223347
  55       0.00000000
  56       0.00000000
  57       0.00661268
  58      -0.00136770
  59      -0.00136770
  60       0.00000000
  61       0.00000000
  62       0.00000000
  63      -0.01871895
  64      -0.00644435
  65      -0.00644435
  66      -0.00000000
  67      -0.00000000
  68      -0.00000000
Ene=    -1.81091E-03
Spin= Alpha
Occup=   0.0000000000
   1      -0.01678553
   2       1.14674676
   3      -0.00485016
   4       0.27386921
   5       0.26598495
   6       0.21231937
   7       0.12003703
   8      -0.09901102
   9      -0.00713894
  10       0.00014746
  11       0.01218949
  12      -0.00000000
  13      -0.00000000
  14       0.52242561
  15       0.00000000
  16       0.00000000
  17      -0.05974082
  18       0.00000000
  19      -0.00000000
  20       0.14712595
  21      -0.00000000
  22       0.00000000
  23       0.01265416
  24       0.01156012
  25       0.01156012
  26      -0.00000000
  27      -0.00000000
  28      -0.00000000
  29       0.14907912
  30       0.02901476
  31       0.02901476
  32       0.00000000
  33       0.00000000
  34       0.00000000
  35       0.01678553
  36      -1.14674676
  37       0.00485016
  38      -0.27386921
  39      -0.26598495
  40      -0.21231937
  41      -0.12003703
  42       0.09901102
  43       0.00713894
  44      -0.00014746
  45       0.01218949
  46       0.00000000
  47       0.00000000
  48       0.52242561
  49      -0.00000000
  50      -0.00000000
  51      -0.05974082
  52       0.00000000
  53       0.00000000
  54       0.14712595
  55      -0.00000000
  56      -0.00000000
  57      -0.01265416
  58      -0.01156012
  59      -0.01156012
  60      -0.00000000
  61      -0.00000000
  62      -0.00000000
  63      -0.14907912
  64      -0.02901476
  65      -0.02901476
  66       0.00000000
  67       0.00000000
  68       0.00000000
Ene=     4.67209E-03
Spin= Alpha
Occup=   0.0000000000
   1       0.60944014
   2       0.14259215
   3      -0.93793247
   4       0.52996582
   5       0.09858150
   6       0.12891813
   7       0.04728724
   8      -0.04351124
   9      -0.00395200
  10       0.00017716
  11      -0.91494719
  12       0.00000000
  13      -0.00000000
  14       0.29783125
  15       0.00000000
  16       0.00000000
  17      -0.45271475
  18      -0.00000000
  19      -0.00000000
  20       0.03540383
  21       0.00000000
  22       0.00000000
  23      -0.38963579
  24      -0.02873493
  25      -0.02873493
  26       0.00000000
  27      -0.00000000
  28       0.00000000
  29      -0.00054438
  30      -0.09512376
  31      -0.09512376
  32       0.00000000
  33       0.00000000
  34      -0.00000000
  35       0.60944014
  36       0.14259214
  37      -0.93793247
  38       0.52996582
  39       0.09858150
  40       0.12891813
  41       0.04728724
  42      -0.04351124
  43      -0.00395200
  44       0.00017716
  45       0.91494719
  46      -0.00000000
  47       0.00000000
  48      -0.29783125
  49      -0.00000000
  50      -0.00000000
  51       0.45271475
  52       0.00000000
  53       0.00000000
  54      -0.03540383
  55       0.00000000
  56       0.00000000
  57      -0.38963579
  58      -0.02873493
  59      -0.02873493
  60       0.00000000
  61      -0.00000000
  62      -0.00000000
  63      -0.00054438
  64      -0.09512376
  65      -0.09512376
  66       0.00000000
  67       0.00000000
  68       0.00000000
Ene=     9.35716E-03
Spin= Alpha
Occup=   0.0000000000
   1      -0.00000000
   2       0.00000000
   3      -0.00000000
   4       0.00000000
   5       0.00000000
   6       0.00000000
   7       0.00000000
   8      -0.00000000
   9      -0.00000000
  10       0.00000000
  11       0.00000000
  12       0.02445406
  13      -0.02766957
  14       0.00000000
  15      -0.06806422
  16       0.07701410
  17      -0.00000000
  18       0.22561027
  19      -0.25527614
  20      -0.00000000
  21       0.26127188
  22      -0.29562696
  23       0.00000000
  24       0.00000000
  25       0.00000000
  26      -0.02009502
  27       0.02273734
  28       0.00000000
  29       0.00000000
  30       0.00000000
  31       0.00000000
  32       0.04001060
  33      -0.04527166
  34      -0.00000000
  35       0.00000000
  36      -0.00000000
  37       0.00000000
  38      -0.00000000
  39       0.00000000
  40      -0.00000000
  41      -0.00000000
  42       0.00000000
  43       0.00000000
  44      -0.00000000
  45      -0.00000000
  46       0.02445406
  47      -0.02766957
  48       0.00000000
  49      -0.06806422
  50       0.07701410
  51      -0.00000000
  52       0.22561027
  53      -0.25527614
  54       0.00000000
  55       0.26127188
  56      -0.29562696
  57       0.00000000
  58      -0.00000000
  59      -0.00000000
  60       0.02009502
  61      -0.02273734
  62      -0.00000000
  63      -0.00000000
  64      -0.00000000
  65      -0.00000000
  66      -0.04001060
  67       0.04527166
  68       0.00000000
Ene=     9.35716E-03
Spin= Alpha
Occup=   0.0000000000
   1       0.00000000
   2      -0.00000000
   3       0.00000000
   4      -0.00000000
   5      -0.00000000
   6      -0.00000000
   7      -0.00000000
   8       0.00000000
   9       0.00000000
  10      -0.00000000
  11      -0.00000000
  12       0.02766957
  13       0.02445406
  14      -0.00000000
  15      -0.07701410
  16      -0.06806422
  17       0.00000000
  18       0.25527614
  19       0.22561027
  20       0.00000000
  21       0.29562696
  22       0.26127188
  23      -0.00000000
  24      -0.00000000
  25      -0.00000000
  26      -0.02273734
  27      -0.02009502
  28      -0.00000000
  29      -0.00000000
  30      -0.00000000
  31      -0.00000000
  32       0.04527166
  33       0.04001060
  34       0.00000000
  35      -0.00000000
  36       0.00000000
  37      -0.00000000
  38       0.00000000
  39      -0.00000000
  40       0.00000000
  41       0.00000000
  42      -0.00000000
  43      -0.00000000
  44      -0.00000000
  45      -0.00000000
  46       0.02766957
  47       0.02445406
  48      -0.00000000
  49      -0.07701410
  50      -0.06806422
  51       0.00000000
  52       0.25527614
  53       0.22561027
  54      -0.00000000
  55       0.29562696
  56       0.26127188
  57       0.00000000
  58       0.00000000
  59       0.00000000
  60       0.02273734
  61       0.02009502
  62      -0.00000000
  63       0.00000000
  64       0.00000000
  65       0.00000000
  66      -0.04527166
  67      -0.04001060
  68       0.00000000
Ene=     1.05546E-02
Spin= Alpha
Occup=   0.0000000000
   1       0.09915732
   2     -10.63332992
   3       1.43141124
   4       0.27091593
   5      -0.57411577
   6      -0.05533317
   7      -0.08716933
   8       0.06086811
   9       0.00260913
  10       0.00017420
  11       0.09935611
  12       0.00000000
  13      -0.00000000
  14      -4.58151813
  15      -0.00000000
  16       0.00000000
  17       0.52740625
  18       0.00000000
  19      -0.00000000
  20       0.44517506
  21       0.00000000
  22      -0.00000000
  23       0.08546825
  24       0.06302637
  25       0.06302637
  26       0.00000000
  27      -0.00000000
  28       0.00000000
  29      -0.94800161
  30       0.11112972
  31       0.11112972
  32      -0.00000000
  33       0.00000000
  34      -0.00000000
  35      -0.09915732
  36      10.63332992
  37      -1.43141124
  38      -0.27091593
  39       0.57411577
  40       0.05533317
  41       0.08716933
  42      -0.06086811
  43      -0.00260913
  44      -0.00017420
  45       0.09935611
  46      -0.00000000
  47       0.00000000
  48      -4.58151813
  49       0.00000000
  50      -0.00000000
  51       0.52740625
  52      -0.00000000
  53      -0.00000000
  54       0.44517506
  55      -0.00000000
  56       0.00000000
  57      -0.08546825
  58      -0.06302637
  59      -0.06302637
  60       0.00000000
  61      -0.00000000
  62      -0.00000000
  63       0.94800161
  64      -0.11112972
  65      -0.11112972
  66      -0.00000000
  67       0.00000000
  68       0.00000000
Ene=     1.11290E-02
Spin= Alpha
Occup=   0.0000000000
   1       0.24912054
   2      -0.27231809
   3      -0.55425711
   4       1.41554082
   5      -0.77193265
   6       0.05100668
   7      -0.08951343
   8       0.05153008
   9       0.00003463
  10       0.00045738
  11      -1.13581877
  12       0.00000000
  13      -0.00000000
  14       0.30565679
  15      -0.00000000
  16       0.00000000
  17      -0.66414326
  18       0.00000000
  19      -0.00000000
  20       0.80174682
  21      -0.00000000
  22      -0.00000000
  23      -0.41173523
  24       0.03833941
  25       0.03833941
  26       0.00000000
  27      -0.00000000
  28       0.00000000
  29       0.20436398
  30       0.12836061
  31       0.12836061
  32      -0.00000000
  33       0.00000000
  34      -0.00000000
  35       0.24912054
  36      -0.27231809
  37      -0.55425711
  38       1.41554082
  39      -0.77193265
  40       0.05100668
  41      -0.08951343
  42       0.05153008
  43       0.00003463
  44       0.00045738
  45       1.13581877
  46      -0.00000000
  47       0.00000000
  48      -0.30565679
  49       0.00000000
  50      -0.00000000
  51       0.66414326
  52      -0.00000000
  53      -0.00000000
  54      -0.80174682
  55       0.00000000
  56       0.00000000
  57      -0.41173523
  58       0.03833941
  59       0.03833941
  60       0.00000000
  61      -0.00000000
  62      -0.00000000
  63       0.20436398
  64       0.12836061
  65       0.12836061
  66      -0.00000000
  67       0.00000000
  68       0.00000000
Ene=     1.15549E-02
Spin= Alpha
Occup=   0.0000000000
   1      -0.00000000
   2       0.00000000
   3      -0.00000000
   4       0.00000000
   5      -0.00000000
   6      -0.00000000
   7      -0.00000000
   8       0.00000000
   9      -0.00000000
  10       0.00000000
  11       0.00000000
  12      -0.01329837
  13      -0.14210702
  14       0.00000000
  15       0.00984048
  16       0.10515583
  17      -0.00000000
  18      -0.00154478
  19      -0.01650761
  20       0.00000000
  21       0.06873006
  22       0.73445296
  23       0.00000000
  24       0.00000000
  25       0.00000000
  26      -0.00334715
  27      -0.03576782
  28      -0.00000000
  29       0.00000000
  30       0.00000000
  31       0.00000000
  32       0.00430325
  33       0.04598479
  34      -0.00000000
  35       0.00000000
  36      -0.00000000
  37       0.00000000
  38      -0.00000000
  39       0.00000000
  40       0.00000000
  41       0.00000000
  42      -0.00000000
  43      -0.00000000
  44       0.00000000
  45      -0.00000000
  46       0.01329837
  47       0.14210702
  48       0.00000000
  49      -0.00984048
  50      -0.10515583
  51      -0.00000000
  52       0.00154478
  53       0.01650761
  54       0.00000000
  55      -0.06873006
  56      -0.73445296
  57       0.00000000
  58      -0.00000000
  59      -0.00000000
  60      -0.00334715
  61      -0.03576782
  62       0.00000000
  63      -0.00000000
  64      -0.00000000
  65      -0.00000000
  66       0.00430325
  67       0.04598479
  68      -0.00000000
Ene=     1.15549E-02
Spin= Alpha
Occup=   0.0000000000
   1      -0.00000000
   2      -0.00000000
   3       0.00000000
   4      -0.00000000
   5       0.00000000
   6       0.00000000
   7       0.00000000
   8      -0.00000000
   9       0.00000000
  10      -0.00000000
  11       0.00000000
  12      -0.14210702
  13       0.01329837
  14      -0.00000000
  15       0.10515583
  16      -0.00984048
  17       0.00000000
  18      -0.01650761
  19       0.00154478
  20      -0.00000000
  21       0.73445296
  22      -0.06873006
  23       0.00000000
  24      -0.00000000
  25      -0.00000000
  26      -0.03576782
  27       0.00334715
  28       0.00000000
  29      -0.00000000
  30      -0.00000000
  31      -0.00000000
  32       0.04598479
  33      -0.00430325
  34      -0.00000000
  35      -0.00000000
  36       0.00000000
  37      -0.00000000
  38       0.00000000
  39      -0.00000000
  40      -0.00000000
  41      -0.00000000
  42       0.00000000
  43      -0.00000000
  44       0.00000000
  45      -0.00000000
  46       0.14210702
  47      -0.01329837
  48      -0.00000000
  49      -0.10515583
  50       0.00984048
  51       0.00000000
  52       0.01650761
  53      -0.00154478
  54      -0.00000000
  55      -0.73445296
  56       0.06873006
  57       0.00000000
  58       0.00000000
  59       0.00000000
  60      -0.03576782
  61       0.00334715
  62      -0.00000000
  63       0.00000000
  64       0.00000000
  65       0.00000000
  66       0.04598479
  67      -0.00430325
  68      -0.00000000
Ene=     1.62545E-02
Spin= Alpha
Occup=   0.0000000000
   1       0.00000000
   2      -0.00000000
   3       0.00000000
   4      -0.00000000
   5       0.00000000
   6      -0.00000000
   7       0.00000000
   8      -0.00000000
   9      -0.00000000
  10      -0.00000000
  11       0.00000000
  12       0.07648178
  13      -0.01167556
  14      -0.00000000
  15      -0.23102619
  16       0.03526801
  17       0.00000000
  18       0.96115425
  19      -0.14672796
  20      -0.00000000
  21      -0.94524116
  22       0.14429870
  23       0.00000000
  24      -0.00000000
  25      -0.00000000
  26      -0.04778639
  27       0.00729498
  28       0.00000000
  29      -0.00000000
  30      -0.00000000
  31      -0.00000000
  32       0.10744058
  33      -0.01640167
  34      -0.00000000
  35      -0.00000000
  36       0.00000000
  37      -0.00000000
  38       0.00000000
  39      -0.00000000
  40       0.00000000
  41      -0.00000000
  42       0.00000000
  43      -0.00000000
  44      -0.00000000
  45      -0.00000000
  46       0.07648178
  47      -0.01167556
  48      -0.00000000
  49      -0.23102619
  50       0.03526801
  51       0.00000000
  52       0.96115425
  53      -0.14672796
  54      -0.00000000
  55      -0.94524116
  56       0.14429870
  57       0.00000000
  58       0.00000000
  59       0.00000000
  60       0.04778639
  61      -0.00729498
  62      -0.00000000
  63       0.00000000
  64       0.00000000
  65       0.00000000
  66      -0.10744058
  67       0.01640167
  68       0.00000000
Ene=     1.62545E-02
Spin= Alpha
Occup=   0.0000000000
   1       0.00000000
   2      -0.00000000
   3       0.00000000
   4      -0.00000000
   5       0.00000000
   6      -0.00000000
   7       0.00000000
   8      -0.00000000
   9       0.00000000
  10      -0.00000000
  11      -0.00000000
  12      -0.01167556
  13      -0.07648178
  14      -0.00000000
  15       0.03526801
  16       0.23102619
  17       0.00000000
  18      -0.14672796
  19      -0.96115425
  20      -0.00000000
  21       0.14429870
  22       0.94524116
  23      -0.00000000
  24      -0.00000000
  25      -0.00000000
  26       0.00729498
  27       0.04778639
  28       0.00000000
  29      -0.00000000
  30      -0.00000000
  31      -0.00000000
  32      -0.01640167
  33      -0.10744058
  34      -0.00000000
  35      -0.00000000
  36       0.00000000
  37      -0.00000000
  38       0.00000000
  39      -0.00000000
  40       0.00000000
  41      -0.00000000
  42       0.00000000
  43       0.00000000
  44      -0.00000000
  45       0.00000000
  46      -0.01167556
  47      -0.07648178
  48      -0.00000000
  49       0.03526801
  50       0.23102619
  51       0.00000000
  52      -0.14672796
  53      -0.96115425
  54      -0.00000000
  55       0.14429870
  56       0.94524116
  57       0.00000000
  58       0.00000000
  59       0.00000000
  60      -0.00729498
  61      -0.04778639
  62      -0.00000000
  63       0.00000000
  64       0.00000000
  65       0.00000000
  66       0.01640167
  67       0.10744058
  68       0.00000000
Ene=     1.67479E-02
Spin= Alpha
Occup=   0.0000000000
   1       0.27746550
   2     -23.46139463
   3       2.60016364
   4      -1.37665692
   5       0.46602266
   6      -0.04902827
   7       0.04013084
   8      -0.02054011
   9       0.00056018
  10      -0.00026464
  11       0.00079507
  12       0.00000000
  13       0.00000000
  14     -10.37996607
  15      -0.00000000
  16       0.00000000
  17       1.55236101
  18       0.00000000
  19       0.00000000
  20      -0.80006369
  21      -0.00000000
  22      -0.00000000
  23      -0.03126101
  24      -0.03261787
  25      -0.03261787
  26       0.00000000
  27       0.00000000
  28       0.00000000
  29      -2.52304675
  30      -0.15733580
  31      -0.15733580
  32      -0.00000000
  33       0.00000000
  34      -0.00000000
  35      -0.27746550
  36      23.46139463
  37      -2.60016364
  38       1.37665692
  39      -0.46602266
  40       0.04902827
  41      -0.04013084
  42       0.02054011
  43      -0.00056018
  44       0.00026464
  45       0.00079507
  46      -0.00000000
  47      -0.00000000
  48     -10.37996607
  49       0.00000000
  50      -0.00000000
  51       1.55236101
  52      -0.00000000
  53       0.00000000
  54      -0.80006369
  55       0.00000000
  56      -0.00000000
  57       0.03126101
  58       0.03261787
  59       0.03261787
  60       0.00000000
  61       0.00000000
  62      -0.00000000
  63       2.52304675
  64       0.15733580
  65       0.15733580
  66      -0.00000000
  67       0.00000000
  68       0.00000000
Ene=     1.86396E-02
Spin= Alpha
Occup=   0.0000000000
   1       0.18516450
   2       0.02342859
   3      -0.20136504
   4       1.16587605
   5      -0.72376196
   6      -0.02260200
   7      -0.07567036
   8       0.05011753
   9       0.00169911
  10       0.00021193
  11      -0.35448207
  12      -0.00000000
  13       0.00000000
  14       0.05107209
  15       0.00000000
  16       0.00000000
  17      -0.16945819
  18      -0.00000000
  19      -0.00000000
  20      -0.31363548
  21      -0.00000000
  22       0.00000000
  23      -0.14096362
  24      -0.00500104
  25      -0.00500104
  26      -0.00000000
  27       0.00000000
  28       0.00000000
  29      -0.02021874
  30      -0.00551102
  31      -0.00551102
  32       0.00000000
  33       0.00000000
  34      -0.00000000
  35       0.18516450
  36       0.02342859
  37      -0.20136504
  38       1.16587605
  39      -0.72376196
  40      -0.02260200
  41      -0.07567036
  42       0.05011753
  43       0.00169911
  44       0.00021193
  45       0.35448207
  46       0.00000000
  47      -0.00000000
  48      -0.05107209
  49      -0.00000000
  50      -0.00000000
  51       0.16945819
  52       0.00000000
  53      -0.00000000
  54       0.31363548
  55      -0.00000000
  56       0.00000000
  57      -0.14096362
  58      -0.00500104
  59      -0.00500104
  60      -0.00000000
  61       0.00000000
  62      -0.00000000
  63      -0.02021873
  64      -0.00551102
  65      -0.00551102
  66       0.00000000
  67       0.00000000
  68      -0.00000000
Ene=     2.09627E-02
Spin= Alpha
Occup=   0.0000000000
   1      -0.14008495
   2      13.08215855
   3      -2.55382751
   4       2.11222905
   5      -0.93155074
   6      -0.00901451
   7      -0.08569577
   8       0.05508744
   9       0.00154770
  10       0.00027967
  11      -0.05820716
  12      -0.00000000
  13      -0.00000000
  14       5.74191533
  15       0.00000000
  16       0.00000000
  17      -1.20477212
  18      -0.00000000
  19      -0.00000000
  20      -0.26852153
  21       0.00000000
  22       0.00000000
  23      -0.02891165
  24      -0.03520912
  25      -0.03520912
  26      -0.00000000
  27      -0.00000000
  28      -0.00000000
  29       1.29017404
  30       0.00895768
  31       0.00895768
  32       0.00000000
  33      -0.00000000
  34       0.00000000
  35       0.14008495
  36     -13.08215855
  37       2.55382751
  38      -2.11222905
  39       0.93155074
  40       0.00901451
  41       0.08569577
  42      -0.05508744
  43      -0.00154770
  44      -0.00027967
  45      -0.05820716
  46       0.00000000
  47       0.00000000
  48       5.74191533
  49      -0.00000000
  50       0.00000000
  51      -1.20477212
  52       0.00000000
  53       0.00000000
  54      -0.26852153
  55      -0.00000000
  56      -0.00000000
  57       0.02891165
  58       0.03520912
  59       0.03520912
  60      -0.00000000
  61      -0.00000000
  62       0.00000000
  63      -1.29017404
  64      -0.00895768
  65      -0.00895768
  66       0.00000000
  67      -0.00000000
  68      -0.00000000
Ene=     2.27963E-02
Spin= Alpha
Occup=   0.0000000000
   1      -0.00000000
   2       0.00000000
   3      -0.00000000
   4      -0.00000000
   5       0.00000000
   6      -0.00000000
   7       0.00000000
   8      -0.00000000
   9       0.00000000
  10      -0.00000000
  11       0.00000000
  12      -3.94145113
  13       0.71600769
  14       0.00000000
  15       0.93725036
  16      -0.17026177
  17      -0.00000000
  18      -1.55382971
  19       0.28227015
  20       0.00000000
  21       0.78600697
  22      -0.14278676
  23       0.00000000
  24       0.00000000
  25       0.00000000
  26      -0.86257510
  27       0.15669620
  28       0.00000000
  29       0.00000000
  30       0.00000000
  31       0.00000000
  32       0.14702617
  33      -0.02670891
  34      -0.00000000
  35       0.00000000
  36      -0.00000000
  37       0.00000000
  38       0.00000000
  39      -0.00000000
  40       0.00000000
  41      -0.00000000
  42       0.00000000
  43      -0.00000000
  44       0.00000000
  45      -0.00000000
  46       3.94145113
  47      -0.71600769
  48       0.00000000
  49      -0.93725036
  50       0.17026177
  51      -0.00000000
  52       1.55382971
  53      -0.28227015
  54       0.00000000
  55      -0.78600697
  56       0.14278676
  57       0.00000000
  58      -0.00000000
  59      -0.00000000
  60      -0.86257510
  61       0.15669620
  62      -0.00000000
  63      -0.00000000
  64      -0.00000000
  65      -0.00000000
  66       0.14702617
  67      -0.02670891
  68      -0.00000000
Ene=     2.27963E-02
Spin= Alpha
Occup=   0.0000000000
   1       0.00000000
   2      -0.00000000
   3      -0.00000000
   4       0.00000000
   5      -0.00000000
   6      -0.00000000
   7      -0.00000000
   8       0.00000000
   9      -0.00000000
  10       0.00000000
  11      -0.00000000
  12       0.71600769
  13       3.94145113
  14      -0.00000000
  15      -0.17026177
  16      -0.93725036
  17       0.00000000
  18       0.28227015
  19       1.55382971
  20      -0.00000000
  21      -0.14278676
  22      -0.78600697
  23      -0.00000000
  24      -0.00000000
  25      -0.00000000
  26       0.15669620
  27       0.86257510
  28       0.00000000
  29      -0.00000000
  30      -0.00000000
  31      -0.00000000
  32      -0.02670891
  33      -0.14702617
  34       0.00000000
  35      -0.00000000
  36       0.00000000
  37      -0.00000000
  38      -0.00000000
  39       0.00000000
  40       0.00000000
  41       0.00000000
  42      -0.00000000
  43       0.00000000
  44       0.00000000
  45       0.00000000
  46      -0.71600769
  47      -3.94145113
  48      -0.00000000
  49       0.17026177
  50       0.93725036
  51       0.00000000
  52      -0.28227015
  53      -1.55382971
  54      -0.00000000
  55       0.14278676
  56       0.78600697
  57      -0.00000000
  58       0.00000000
  59       0.00000000
  60       0.15669620
  61       0.86257510
  62      -0.00000000
  63       0.00000000
  64       0.00000000
  65       0.00000000
  66      -0.02670891
  67      -0.14702617
  68       0.00000000
Ene=     2.86220E-02
Spin= Alpha
Occup=   0.0000000000
   1       0.78378116
   2      -1.07839297
   3       1.76360314
   4      -1.31112767
   5       0.46155179
   6       0.03634936
   7       0.03316407
   8      -0.02438664
   9      -0.00134096
  10      -0.00003367
  11      -2.60125108
  12       0.00000000
  13      -0.00000000
  14       0.69424112
  15      -0.00000000
  16       0.00000000
  17      -1.08182761
  18       0.00000000
  19      -0.00000000
  20       0.64096357
  21       0.00000000
  22       0.00000000
  23      -0.99047363
  24       0.05657047
  25       0.05657047
  26       0.00000000
  27      -0.00000000
  28      -0.00000000
  29       0.50675370
  30       0.27525489
  31       0.27525489
  32      -0.00000000
  33       0.00000000
  34       0.00000000
  35       0.78378116
  36      -1.07839297
  37       1.76360314
  38      -1.31112767
  39       0.46155179
  40       0.03634936
  41       0.03316407
  42      -0.02438664
  43      -0.00134096
  44      -0.00003367
  45       2.60125108
  46      -0.00000000
  47       0.00000000
  48      -0.69424112
  49       0.00000000
  50      -0.00000000
  51       1.08182761
  52      -0.00000000
  53       0.00000000
  54      -0.64096357
  55      -0.00000000
  56      -0.00000000
  57      -0.99047363
  58       0.05657047
  59       0.05657047
  60       0.00000000
  61      -0.00000000
  62       0.00000000
  63       0.50675370
  64       0.27525489
  65       0.27525489
  66      -0.00000000
  67       0.00000000
  68      -0.00000000
Ene=     3.00671E-02
Spin= Alpha
Occup=   0.0000000000
   1       0.41199870
   2     -28.66403241
   3       0.09126901
   4       0.67142331
   5      -0.27522489
   6      -0.00611691
   7      -0.02037899
   8       0.01331602
   9       0.00042173
  10       0.00006244
  11      -0.27192355
  12       0.00000000
  13       0.00000000
  14     -13.20971246
  15      -0.00000000
  16       0.00000000
  17       2.41365159
  18       0.00000000
  19      -0.00000000
  20      -0.68722135
  21      -0.00000000
  22       0.00000000
  23      -0.31322023
  24      -0.25805940
  25      -0.25805940
  26       0.00000000
  27       0.00000000
  28       0.00000000
  29      -3.73263442
  30      -0.74727937
  31      -0.74727937
  32      -0.00000000
  33       0.00000000
  34      -0.00000000
  35      -0.41199870
  36      28.66403241
  37      -0.09126901
  38      -0.67142331
  39       0.27522489
  40       0.00611691
  41       0.02037899
  42      -0.01331602
  43      -0.00042173
  44      -0.00006244
  45      -0.27192355
  46      -0.00000000
  47      -0.00000000
  48     -13.20971247
  49       0.00000000
  50      -0.00000000
  51       2.41365159
  52      -0.00000000
  53       0.00000000
  54      -0.68722135
  55      -0.00000000
  56      -0.00000000
  57       0.31322023
  58       0.25805940
  59       0.25805940
  60       0.00000000
  61       0.00000000
  62      -0.00000000
  63       3.73263442
  64       0.74727937
  65       0.74727937
  66      -0.00000000
  67       0.00000000
  68       0.00000000
Ene=     3.06138E-02
Spin= Alpha
Occup=   0.0000000000
   1      -5.53810906
   2      -2.42326553
   3       4.76160075
   4      -2.07990682
   5       0.49146700
   6       0.09251907
   7       0.02630606
   8      -0.02567919
   9      -0.00258059
  10       0.00012841
  11       3.96670267
  12      -0.00000000