 Molden2AIM, Version 3.1.0 (02/25/2015)           Time: Thu Oct 17 19:53:19 2024
GAUSSIAN             68 MOL ORBITALS     68 PRIMITIVES        2 NUCLEI
  Be   1    (CENTRE  1)   0.00000000  0.00000000  0.00000000  CHARGE =  4.0
  Be   2    (CENTRE  2)  18.20000000  0.00000000  0.00000000  CHARGE =  4.0
CENTRE ASSIGNMENTS    1  1  1  1  1  1  1  1  1  1  1  1  1  1  1  1  1  1  1  1
CENTRE ASSIGNMENTS    1  1  1  1  1  1  1  1  1  1  1  1  1  1  2  2  2  2  2  2
CENTRE ASSIGNMENTS    2  2  2  2  2  2  2  2  2  2  2  2  2  2  2  2  2  2  2  2
CENTRE ASSIGNMENTS    2  2  2  2  2  2  2  2
TYPE ASSIGNMENTS      1  1  1  1  1  1  1  1  1  1  2  3  4  2  3  4  2  3  4  2
TYPE ASSIGNMENTS      3  4  5  6  7  8  9 10  5  6  7  8  9 10  1  1  1  1  1  1
TYPE ASSIGNMENTS      1  1  1  1  2  3  4  2  3  4  2  3  4  2  3  4  5  6  7  8
TYPE ASSIGNMENTS      9 10  5  6  7  8  9 10
EXPONENTS  0.1000000D-03 0.3000000D-03 0.9000000D-03 0.2700000D-02 0.8100000D-02
EXPONENTS  0.2430000D-01 0.7290000D-01 0.2187000D+00 0.6561000D+00 0.1968300D+01
EXPONENTS  0.1000000D-03 0.1000000D-03 0.1000000D-03 0.3000000D-03 0.3000000D-03
EXPONENTS  0.3000000D-03 0.9000000D-03 0.9000000D-03 0.9000000D-03 0.2700000D-02
EXPONENTS  0.2700000D-02 0.2700000D-02 0.1000000D-03 0.1000000D-03 0.1000000D-03
EXPONENTS  0.1000000D-03 0.1000000D-03 0.1000000D-03 0.3000000D-03 0.3000000D-03
EXPONENTS  0.3000000D-03 0.3000000D-03 0.3000000D-03 0.3000000D-03 0.1000000D-03
EXPONENTS  0.3000000D-03 0.9000000D-03 0.2700000D-02 0.8100000D-02 0.2430000D-01
EXPONENTS  0.7290000D-01 0.2187000D+00 0.6561000D+00 0.1968300D+01 0.1000000D-03
EXPONENTS  0.1000000D-03 0.1000000D-03 0.3000000D-03 0.3000000D-03 0.3000000D-03
EXPONENTS  0.9000000D-03 0.9000000D-03 0.9000000D-03 0.2700000D-02 0.2700000D-02
EXPONENTS  0.2700000D-02 0.1000000D-03 0.1000000D-03 0.1000000D-03 0.1000000D-03
EXPONENTS  0.1000000D-03 0.1000000D-03 0.3000000D-03 0.3000000D-03 0.3000000D-03
EXPONENTS  0.3000000D-03 0.3000000D-03 0.3000000D-03
MO    1     MO 0.0        OCC NO =    1.0000000  ORB. ENERGY =   -0.005141
  0.78575122D-04 -0.15863672D-03  0.16356903D-03  0.15025387D-02  0.45245199D-02
  0.87718250D-02  0.12136107D-01 -0.22314927D-01 -0.34629294D-02  0.10733727D-03
 -0.94791008D-05 -0.00000000D+00  0.00000000D+00  0.14119334D-04  0.00000000D+00
  0.00000000D+00 -0.52807440D-05 -0.00000000D+00  0.00000000D+00  0.29075701D-04
  0.00000000D+00 -0.00000000D+00 -0.17167156D-07  0.26151738D-09  0.26151738D-09
 -0.00000000D+00  0.00000000D+00 -0.00000000D+00  0.83377311D-07  0.82014834D-08
  0.82014834D-08  0.00000000D+00 -0.00000000D+00  0.00000000D+00  0.78575122D-04
 -0.15863672D-03  0.16356903D-03  0.15025387D-02  0.45245199D-02  0.87718250D-02
  0.12136107D-01 -0.22314927D-01 -0.34629294D-02  0.10733727D-03  0.94791008D-05
  0.00000000D+00 -0.00000000D+00 -0.14119334D-04 -0.00000000D+00 -0.00000000D+00
  0.52807440D-05  0.00000000D+00 -0.00000000D+00 -0.29075701D-04 -0.00000000D+00
  0.00000000D+00 -0.17167156D-07  0.26151738D-09  0.26151738D-09 -0.00000000D+00
  0.00000000D+00  0.00000000D+00  0.83377311D-07  0.82014834D-08  0.82014834D-08
  0.00000000D+00  0.00000000D+00 -0.00000000D+00
MO    2     MO 0.0        OCC NO =    0.0000000  ORB. ENERGY =   -0.000949
  0.98391841D-06  0.35111226D-06 -0.35922042D-02 -0.22116982D-02 -0.57219772D-02
 -0.96980695D-02 -0.12542283D-01  0.23306150D-01  0.37601866D-02 -0.15182130D-03
 -0.19394084D-06  0.00000000D+00 -0.00000000D+00 -0.14932289D-06  0.00000000D+00
 -0.00000000D+00 -0.48180576D-04  0.00000000D+00 -0.00000000D+00  0.64885197D-04
 -0.00000000D+00  0.00000000D+00 -0.37153777D-08 -0.54489146D-08 -0.54489146D-08
  0.00000000D+00 -0.00000000D+00 -0.00000000D+00 -0.58935415D-07 -0.38923439D-07
 -0.38923439D-07  0.00000000D+00 -0.00000000D+00  0.00000000D+00 -0.98391841D-06
 -0.35111226D-06  0.35922042D-02  0.22116982D-02  0.57219772D-02  0.96980695D-02
  0.12542283D-01 -0.23306150D-01 -0.37601866D-02  0.15182130D-03 -0.19394084D-06
 -0.00000000D+00  0.00000000D+00 -0.14932289D-06 -0.00000000D+00  0.00000000D+00
 -0.48180576D-04  0.00000000D+00  0.00000000D+00  0.64885197D-04 -0.00000000D+00
 -0.00000000D+00  0.37153777D-08  0.54489146D-08  0.54489146D-08  0.00000000D+00
 -0.00000000D+00 -0.00000000D+00  0.58935415D-07  0.38923439D-07  0.38923439D-07
  0.00000000D+00 -0.00000000D+00  0.00000000D+00
MO    3     MO 0.0        OCC NO =    0.0000000  ORB. ENERGY =    0.003129
 -0.61131956D-03  0.21975148D-03  0.43251501D-02 -0.66672217D-02  0.15641534D-02
 -0.49439085D-02 -0.21410038D-02  0.57148461D-02  0.16182287D-02 -0.26239183D-03
  0.55681023D-04  0.00000000D+00 -0.00000000D+00 -0.80155385D-04 -0.00000000D+00
  0.00000000D+00  0.85750965D-04  0.00000000D+00 -0.00000000D+00 -0.76699206D-04
 -0.00000000D+00  0.00000000D+00  0.10527924D-06  0.33788309D-08  0.33788309D-08
  0.00000000D+00 -0.00000000D+00 -0.00000000D+00 -0.31381816D-06  0.98417654D-07
  0.98417654D-07 -0.00000000D+00  0.00000000D+00 -0.00000000D+00 -0.61131956D-03
  0.21975148D-03  0.43251501D-02 -0.66672217D-02  0.15641534D-02 -0.49439085D-02
 -0.21410038D-02  0.57148461D-02  0.16182287D-02 -0.26239183D-03 -0.55681023D-04
 -0.00000000D+00  0.00000000D+00  0.80155385D-04  0.00000000D+00 -0.00000000D+00
 -0.85750965D-04 -0.00000000D+00  0.00000000D+00  0.76699206D-04  0.00000000D+00
 -0.00000000D+00  0.10527924D-06  0.33788309D-08  0.33788309D-08  0.00000000D+00
 -0.00000000D+00  0.00000000D+00 -0.31381816D-06  0.98417654D-07  0.98417654D-07
 -0.00000000D+00  0.00000000D+00  0.00000000D+00
MO    4     MO 0.0        OCC NO =    0.0000000  ORB. ENERGY =    0.003881
  0.00000000D+00 -0.00000000D+00 -0.00000000D+00  0.00000000D+00 -0.00000000D+00
  0.00000000D+00 -0.00000000D+00  0.00000000D+00 -0.00000000D+00  0.00000000D+00
 -0.00000000D+00 -0.36518743D-07  0.41912071D-06  0.00000000D+00  0.58470545D-06
 -0.67105783D-05 -0.00000000D+00 -0.10059592D-04  0.11545246D-03  0.00000000D+00
 -0.71920414D-05  0.82542031D-04 -0.00000000D+00  0.00000000D+00  0.00000000D+00
 -0.17730345D-08  0.20348859D-07  0.00000000D+00  0.00000000D+00  0.00000000D+00
  0.00000000D+00  0.43284285D-08 -0.49676809D-07 -0.00000000D+00  0.00000000D+00
 -0.00000000D+00  0.00000000D+00 -0.00000000D+00  0.00000000D+00 -0.00000000D+00
 -0.00000000D+00  0.00000000D+00  0.00000000D+00 -0.00000000D+00  0.00000000D+00
 -0.36518743D-07  0.41912071D-06 -0.00000000D+00  0.58470545D-06 -0.67105783D-05
 -0.00000000D+00 -0.10059592D-04  0.11545246D-03  0.00000000D+00 -0.71920414D-05
  0.82542031D-04 -0.00000000D+00 -0.00000000D+00 -0.00000000D+00  0.17730345D-08
 -0.20348859D-07 -0.00000000D+00  0.00000000D+00 -0.00000000D+00  0.00000000D+00
 -0.43284285D-08  0.49676809D-07  0.00000000D+00
MO    5     MO 0.0        OCC NO =    0.0000000  ORB. ENERGY =    0.003881
 -0.00000000D+00  0.00000000D+00 -0.00000000D+00  0.00000000D+00 -0.00000000D+00
  0.00000000D+00  0.00000000D+00 -0.00000000D+00 -0.00000000D+00  0.00000000D+00
  0.00000000D+00 -0.41912071D-06 -0.36518743D-07 -0.00000000D+00  0.67105783D-05
  0.58470545D-06 -0.00000000D+00 -0.11545246D-03 -0.10059592D-04  0.00000000D+00
 -0.82542031D-04 -0.71920414D-05  0.00000000D+00 -0.00000000D+00 -0.00000000D+00
 -0.20348859D-07 -0.17730345D-08 -0.00000000D+00 -0.00000000D+00 -0.00000000D+00
 -0.00000000D+00  0.49676809D-07  0.43284285D-08 -0.00000000D+00 -0.00000000D+00
  0.00000000D+00  0.00000000D+00 -0.00000000D+00  0.00000000D+00 -0.00000000D+00
 -0.00000000D+00  0.00000000D+00  0.00000000D+00  0.00000000D+00 -0.00000000D+00
 -0.41912071D-06 -0.36518743D-07  0.00000000D+00  0.67105783D-05  0.58470545D-06
 -0.00000000D+00 -0.11545246D-03 -0.10059592D-04  0.00000000D+00 -0.82542031D-04
 -0.71920414D-05  0.00000000D+00 -0.00000000D+00 -0.00000000D+00  0.20348859D-07
  0.17730345D-08  0.00000000D+00 -0.00000000D+00 -0.00000000D+00 -0.00000000D+00
 -0.49676809D-07 -0.43284285D-08  0.00000000D+00
MO    6     MO 0.0        OCC NO =    0.0000000  ORB. ENERGY =    0.005227
 -0.99114097D-05 -0.10250993D-04  0.35142055D-01 -0.79967625D-02 -0.45223652D-02
 -0.38666051D-02 -0.67484132D-02  0.11710879D-01  0.15808046D-02  0.29809986D-04
  0.19485329D-05 -0.00000000D+00  0.00000000D+00  0.28350002D-05  0.00000000D+00
  0.00000000D+00  0.44518581D-03 -0.00000000D+00  0.00000000D+00 -0.29275335D-03
 -0.00000000D+00  0.00000000D+00  0.38710789D-07  0.53438493D-07  0.53438493D-07
 -0.00000000D+00  0.00000000D+00  0.00000000D+00  0.60967885D-06  0.43573558D-06
  0.43573558D-06  0.00000000D+00  0.00000000D+00 -0.00000000D+00  0.99114097D-05
  0.10250993D-04 -0.35142055D-01  0.79967625D-02  0.45223652D-02  0.38666051D-02
  0.67484132D-02 -0.11710879D-01 -0.15808046D-02 -0.29809986D-04  0.19485329D-05
  0.00000000D+00 -0.00000000D+00  0.28350002D-05 -0.00000000D+00 -0.00000000D+00
  0.44518581D-03  0.00000000D+00 -0.00000000D+00 -0.29275335D-03  0.00000000D+00
 -0.00000000D+00 -0.38710789D-07 -0.53438493D-07 -0.53438493D-07 -0.00000000D+00
  0.00000000D+00  0.00000000D+00 -0.60967885D-06 -0.43573558D-06 -0.43573558D-06
  0.00000000D+00  0.00000000D+00 -0.00000000D+00
MO    7     MO 0.0        OCC NO =    0.0000000  ORB. ENERGY =    0.006707
 -0.19829334D-02  0.28444948D-02 -0.33777617D-03 -0.68147838D-02  0.46717147D-02
 -0.21278682D-02  0.26726306D-02 -0.26935740D-02  0.46136092D-03 -0.27554992D-03
  0.23775160D-03  0.00000000D+00 -0.00000000D+00 -0.26569927D-03  0.00000000D+00
  0.00000000D+00  0.22162544D-03  0.00000000D+00 -0.00000000D+00  0.44278896D-03
  0.00000000D+00 -0.00000000D+00  0.42972866D-06 -0.61506110D-08 -0.61506110D-08
  0.00000000D+00 -0.00000000D+00 -0.00000000D+00 -0.15402048D-05 -0.17074088D-06
 -0.17074088D-06  0.00000000D+00  0.00000000D+00  0.00000000D+00 -0.19829334D-02
  0.28444948D-02 -0.33777617D-03 -0.68147838D-02  0.46717147D-02 -0.21278682D-02
  0.26726306D-02 -0.26935740D-02  0.46136092D-03 -0.27554992D-03 -0.23775160D-03
 -0.00000000D+00  0.00000000D+00  0.26569927D-03 -0.00000000D+00 -0.00000000D+00
 -0.22162544D-03 -0.00000000D+00  0.00000000D+00 -0.44278896D-03 -0.00000000D+00
  0.00000000D+00  0.42972866D-06 -0.61506110D-08 -0.61506110D-08  0.00000000D+00
 -0.00000000D+00  0.00000000D+00 -0.15402048D-05 -0.17074088D-06 -0.17074088D-06
  0.00000000D+00  0.00000000D+00 -0.00000000D+00
MO    8     MO 0.0        OCC NO =    0.0000000  ORB. ENERGY =    0.007024
  0.00000000D+00  0.00000000D+00 -0.00000000D+00  0.00000000D+00 -0.00000000D+00
  0.00000000D+00 -0.00000000D+00  0.00000000D+00  0.00000000D+00 -0.00000000D+00
  0.00000000D+00 -0.32814384D-05 -0.19168208D-05  0.00000000D+00 -0.23773022D-03
 -0.13886783D-03 -0.00000000D+00  0.24248264D-03  0.14164391D-03 -0.00000000D+00
  0.46562696D-03  0.27199153D-03  0.00000000D+00 -0.00000000D+00 -0.00000000D+00
 -0.11170963D-07 -0.65254116D-08 -0.00000000D+00  0.00000000D+00  0.00000000D+00
  0.00000000D+00 -0.11887621D-05 -0.69440401D-06  0.00000000D+00 -0.00000000D+00
 -0.00000000D+00  0.00000000D+00  0.00000000D+00 -0.00000000D+00  0.00000000D+00
  0.00000000D+00 -0.00000000D+00 -0.00000000D+00  0.00000000D+00 -0.00000000D+00
  0.32814384D-05  0.19168208D-05  0.00000000D+00  0.23773022D-03  0.13886783D-03
 -0.00000000D+00 -0.24248264D-03 -0.14164391D-03  0.00000000D+00 -0.46562696D-03
 -0.27199153D-03  0.00000000D+00  0.00000000D+00  0.00000000D+00 -0.11170963D-07
 -0.65254116D-08  0.00000000D+00  0.00000000D+00 -0.00000000D+00 -0.00000000D+00
 -0.11887621D-05 -0.69440401D-06 -0.00000000D+00
MO    9     MO 0.0        OCC NO =    0.0000000  ORB. ENERGY =    0.007024
  0.00000000D+00 -0.00000000D+00  0.00000000D+00 -0.00000000D+00  0.00000000D+00
 -0.00000000D+00  0.00000000D+00 -0.00000000D+00  0.00000000D+00 -0.00000000D+00
 -0.00000000D+00  0.19168208D-05 -0.32814384D-05 -0.00000000D+00  0.13886783D-03
 -0.23773022D-03  0.00000000D+00 -0.14164391D-03  0.24248264D-03  0.00000000D+00
 -0.27199153D-03  0.46562696D-03 -0.00000000D+00  0.00000000D+00  0.00000000D+00
  0.65254116D-08 -0.11170963D-07  0.00000000D+00 -0.00000000D+00  0.00000000D+00
  0.00000000D+00  0.69440401D-06 -0.11887621D-05 -0.00000000D+00  0.00000000D+00
  0.00000000D+00 -0.00000000D+00 -0.00000000D+00  0.00000000D+00 -0.00000000D+00
  0.00000000D+00 -0.00000000D+00  0.00000000D+00 -0.00000000D+00  0.00000000D+00
 -0.19168208D-05  0.32814384D-05  0.00000000D+00 -0.13886783D-03  0.23773022D-03
 -0.00000000D+00  0.14164391D-03 -0.24248264D-03 -0.00000000D+00  0.27199153D-03
 -0.46562696D-03 -0.00000000D+00  0.00000000D+00  0.00000000D+00  0.65254116D-08
 -0.11170963D-07 -0.00000000D+00 -0.00000000D+00  0.00000000D+00  0.00000000D+00
  0.69440401D-06 -0.11887621D-05  0.00000000D+00
MO   10     MO 0.0        OCC NO =    0.0000000  ORB. ENERGY =    0.009970
  0.00000000D+00  0.00000000D+00 -0.00000000D+00 -0.00000000D+00  0.00000000D+00
 -0.00000000D+00 -0.00000000D+00  0.00000000D+00 -0.00000000D+00  0.00000000D+00
 -0.00000000D+00 -0.50429400D-06  0.71155231D-07 -0.00000000D+00  0.80611583D-05
 -0.11374189D-05 -0.00000000D+00 -0.16307428D-03  0.23009570D-04 -0.00000000D+00
  0.72458960D-03 -0.10223866D-03 -0.00000000D+00  0.00000000D+00 -0.00000000D+00
 -0.20083419D-07  0.28337455D-08 -0.00000000D+00 -0.00000000D+00  0.00000000D+00
  0.00000000D+00  0.29451671D-07 -0.41555822D-08  0.00000000D+00  0.00000000D+00
  0.00000000D+00  0.00000000D+00  0.00000000D+00  0.00000000D+00  0.00000000D+00
  0.00000000D+00 -0.00000000D+00 -0.00000000D+00  0.00000000D+00  0.00000000D+00
 -0.50429400D-06  0.71155231D-07  0.00000000D+00  0.80611583D-05 -0.11374189D-05
 -0.00000000D+00 -0.16307428D-03  0.23009570D-04 -0.00000000D+00  0.72458960D-03
 -0.10223866D-03 -0.00000000D+00 -0.00000000D+00 -0.00000000D+00  0.20083419D-07
 -0.28337455D-08  0.00000000D+00 -0.00000000D+00 -0.00000000D+00 -0.00000000D+00
 -0.29451671D-07  0.41555822D-08 -0.00000000D+00
MO   11     MO 0.0        OCC NO =    0.0000000  ORB. ENERGY =    0.009970
 -0.00000000D+00 -0.00000000D+00  0.00000000D+00  0.00000000D+00 -0.00000000D+00
  0.00000000D+00  0.00000000D+00 -0.00000000D+00 -0.00000000D+00  0.00000000D+00
  0.00000000D+00  0.71155231D-07  0.50429400D-06  0.00000000D+00 -0.11374189D-05
 -0.80611583D-05 -0.00000000D+00  0.23009570D-04  0.16307428D-03  0.00000000D+00
 -0.10223866D-03 -0.72458960D-03  0.00000000D+00  0.00000000D+00  0.00000000D+00
  0.28337455D-08  0.20083419D-07  0.00000000D+00  0.00000000D+00  0.00000000D+00
  0.00000000D+00 -0.41555822D-08 -0.29451671D-07 -0.00000000D+00 -0.00000000D+00
 -0.00000000D+00 -0.00000000D+00 -0.00000000D+00  0.00000000D+00 -0.00000000D+00
  0.00000000D+00 -0.00000000D+00  0.00000000D+00 -0.00000000D+00 -0.00000000D+00
  0.71155231D-07  0.50429400D-06 -0.00000000D+00 -0.11374189D-05 -0.80611583D-05
  0.00000000D+00  0.23009570D-04  0.16307428D-03  0.00000000D+00 -0.10223866D-03
 -0.72458960D-03  0.00000000D+00  0.00000000D+00  0.00000000D+00 -0.28337455D-08
 -0.20083419D-07 -0.00000000D+00  0.00000000D+00  0.00000000D+00  0.00000000D+00
  0.41555822D-08  0.29451671D-07  0.00000000D+00
MO   12     MO 0.0        OCC NO =    0.0000000  ORB. ENERGY =    0.010407
 -0.16967094D-05  0.82584066D-04  0.86386408D-01  0.26689746D-01 -0.95996830D-04
  0.18336530D-02  0.17524134D-02 -0.34528255D-02 -0.64544703D-03  0.48167348D-04
  0.33165193D-06 -0.00000000D+00  0.00000000D+00 -0.94942627D-05  0.00000000D+00
  0.00000000D+00  0.13799128D-02 -0.00000000D+00 -0.00000000D+00  0.24972353D-02
  0.00000000D+00 -0.00000000D+00 -0.15727841D-07  0.28461155D-07  0.28461155D-07
 -0.00000000D+00  0.00000000D+00  0.00000000D+00  0.59066882D-07 -0.39649339D-06
 -0.39649339D-06  0.00000000D+00  0.00000000D+00 -0.00000000D+00  0.16967094D-05
 -0.82584066D-04 -0.86386408D-01 -0.26689746D-01  0.95996830D-04 -0.18336530D-02
 -0.17524134D-02  0.34528255D-02  0.64544703D-03 -0.48167348D-04  0.33165179D-06
  0.00000000D+00 -0.00000000D+00 -0.94942627D-05 -0.00000000D+00 -0.00000000D+00
  0.13799128D-02  0.00000000D+00 -0.00000000D+00  0.24972353D-02 -0.00000000D+00
  0.00000000D+00  0.15727841D-07 -0.28461155D-07 -0.28461155D-07 -0.00000000D+00
  0.00000000D+00  0.00000000D+00 -0.59066882D-07  0.39649339D-06  0.39649339D-06
  0.00000000D+00  0.00000000D+00  0.00000000D+00
MO   13     MO 0.0        OCC NO =    0.0000000  ORB. ENERGY =    0.012984
  0.42325465D-03 -0.86107736D-03  0.20813262D-02 -0.14524902D-01  0.25259564D-01
 -0.40948229D-02  0.13671436D-01 -0.17477032D-01  0.17261937D-03 -0.87375119D-03
 -0.24255333D-04 -0.00000000D+00  0.00000000D+00  0.11516612D-03 -0.00000000D+00
  0.00000000D+00  0.65027261D-05  0.00000000D+00 -0.00000000D+00 -0.13895201D-03
 -0.00000000D+00  0.00000000D+00 -0.52188556D-07 -0.69702772D-08 -0.69702772D-08
 -0.00000000D+00  0.00000000D+00  0.00000000D+00  0.51092528D-06 -0.12532353D-06
 -0.12532353D-06 -0.00000000D+00  0.00000000D+00 -0.00000000D+00  0.42325465D-03
 -0.86107736D-03  0.20813262D-02 -0.14524902D-01  0.25259564D-01 -0.40948229D-02
  0.13671436D-01 -0.17477032D-01  0.17261937D-03 -0.87375119D-03  0.24255333D-04
  0.00000000D+00 -0.00000000D+00 -0.11516612D-03  0.00000000D+00 -0.00000000D+00
 -0.65027261D-05 -0.00000000D+00  0.00000000D+00  0.13895201D-03  0.00000000D+00
 -0.00000000D+00 -0.52188556D-07 -0.69702772D-08 -0.69702772D-08 -0.00000000D+00
  0.00000000D+00 -0.00000000D+00  0.51092528D-06 -0.12532353D-06 -0.12532353D-06
 -0.00000000D+00  0.00000000D+00  0.00000000D+00
MO   14     MO 0.0        OCC NO =    0.0000000  ORB. ENERGY =    0.015032
  0.11238952D-04  0.10278888D-03  0.21806585D-01  0.32355212D-01 -0.23678757D-01
  0.42873673D-02 -0.12193491D-01  0.15387062D-01 -0.16576635D-03  0.77316469D-03
 -0.21995552D-05 -0.00000000D+00  0.00000000D+00 -0.16129839D-04  0.00000000D+00
  0.00000000D+00  0.61280715D-03 -0.00000000D+00  0.00000000D+00  0.57794876D-03
  0.00000000D+00 -0.00000000D+00 -0.63909855D-07 -0.41133343D-07 -0.41133343D-07
 -0.00000000D+00  0.00000000D+00 -0.00000000D+00 -0.81343824D-06 -0.10050862D-05
 -0.10050862D-05  0.00000000D+00  0.00000000D+00  0.00000000D+00 -0.11238952D-04
 -0.10278888D-03 -0.21806585D-01 -0.32355212D-01  0.23678757D-01 -0.42873673D-02
  0.12193491D-01 -0.15387062D-01  0.16576635D-03 -0.77316469D-03 -0.21995553D-05
  0.00000000D+00 -0.00000000D+00 -0.16129838D-04 -0.00000000D+00 -0.00000000D+00
  0.61280715D-03  0.00000000D+00 -0.00000000D+00  0.57794876D-03 -0.00000000D+00
  0.00000000D+00  0.63909855D-07  0.41133343D-07  0.41133343D-07 -0.00000000D+00
  0.00000000D+00  0.00000000D+00  0.81343824D-06  0.10050862D-05  0.10050862D-05
  0.00000000D+00  0.00000000D+00  0.00000000D+00
MO   15     MO 0.0        OCC NO =    0.0000000  ORB. ENERGY =    0.015049
 -0.38219866D-02  0.59837756D-02 -0.64281047D-02  0.42511091D-02  0.24644996D-02
  0.58061023D-04  0.12583188D-02 -0.18298360D-02 -0.11196048D-03 -0.49541189D-04
  0.47731820D-03  0.00000000D+00 -0.00000000D+00 -0.47802934D-03  0.00000000D+00
  0.00000000D+00  0.48136511D-03 -0.00000000D+00 -0.00000000D+00 -0.92434445D-03
  0.00000000D+00  0.00000000D+00  0.85745209D-06 -0.17528696D-07 -0.17528696D-07
  0.00000000D+00 -0.00000000D+00 -0.00000000D+00 -0.29457147D-05 -0.50441614D-06
 -0.50441614D-06  0.00000000D+00  0.00000000D+00  0.00000000D+00 -0.38219866D-02
  0.59837755D-02 -0.64281047D-02  0.42511091D-02  0.24644996D-02  0.58061023D-04
  0.12583188D-02 -0.18298360D-02 -0.11196048D-03 -0.49541189D-04 -0.47731820D-03
 -0.00000000D+00  0.00000000D+00  0.47802934D-03 -0.00000000D+00 -0.00000000D+00
 -0.48136511D-03  0.00000000D+00  0.00000000D+00  0.92434445D-03 -0.00000000D+00
 -0.00000000D+00  0.85745209D-06 -0.17528696D-07 -0.17528696D-07  0.00000000D+00
 -0.00000000D+00  0.00000000D+00 -0.29457147D-05 -0.50441614D-06 -0.50441614D-06
  0.00000000D+00  0.00000000D+00 -0.00000000D+00
MO   16     MO 0.0        OCC NO =    0.0000000  ORB. ENERGY =    0.015232
  0.00000000D+00  0.00000000D+00 -0.00000000D+00  0.00000000D+00 -0.00000000D+00
  0.00000000D+00 -0.00000000D+00  0.00000000D+00 -0.00000000D+00  0.00000000D+00
  0.00000000D+00 -0.46561155D-05 -0.32640726D-05  0.00000000D+00 -0.33671562D-03
 -0.23604745D-03  0.00000000D+00  0.47352625D-03  0.33195569D-03  0.00000000D+00
 -0.10374116D-02 -0.72725572D-03  0.00000000D+00 -0.00000000D+00 -0.00000000D+00
 -0.17080371D-07 -0.11973837D-07 -0.00000000D+00 -0.00000000D+00 -0.00000000D+00
 -0.00000000D+00 -0.16541332D-05 -0.11595955D-05  0.00000000D+00 -0.00000000D+00
 -0.00000000D+00  0.00000000D+00 -0.00000000D+00  0.00000000D+00 -0.00000000D+00
  0.00000000D+00 -0.00000000D+00  0.00000000D+00 -0.00000000D+00 -0.00000000D+00
  0.46561155D-05  0.32640726D-05  0.00000000D+00  0.33671562D-03  0.23604745D-03
 -0.00000000D+00 -0.47352625D-03 -0.33195569D-03  0.00000000D+00  0.10374116D-02
  0.72725572D-03  0.00000000D+00  0.00000000D+00  0.00000000D+00 -0.17080371D-07
 -0.11973837D-07  0.00000000D+00 -0.00000000D+00 -0.00000000D+00 -0.00000000D+00
 -0.16541332D-05 -0.11595955D-05 -0.00000000D+00
MO   17     MO 0.0        OCC NO =    0.0000000  ORB. ENERGY =    0.015232
  0.00000000D+00  0.00000000D+00 -0.00000000D+00  0.00000000D+00 -0.00000000D+00
  0.00000000D+00 -0.00000000D+00  0.00000000D+00 -0.00000000D+00  0.00000000D+00
  0.00000000D+00 -0.32640726D-05  0.46561155D-05  0.00000000D+00 -0.23604745D-03
  0.33671562D-03 -0.00000000D+00  0.33195569D-03 -0.47352625D-03  0.00000000D+00
 -0.72725572D-03  0.10374116D-02  0.00000000D+00  0.00000000D+00  0.00000000D+00
 -0.11973837D-07  0.17080371D-07 -0.00000000D+00  0.00000000D+00  0.00000000D+00
  0.00000000D+00 -0.11595955D-05  0.16541332D-05  0.00000000D+00 -0.00000000D+00
 -0.00000000D+00  0.00000000D+00 -0.00000000D+00  0.00000000D+00 -0.00000000D+00
  0.00000000D+00 -0.00000000D+00  0.00000000D+00 -0.00000000D+00 -0.00000000D+00
  0.32640726D-05 -0.46561155D-05 -0.00000000D+00  0.23604745D-03 -0.33671562D-03
  0.00000000D+00 -0.33195569D-03  0.47352625D-03  0.00000000D+00  0.72725572D-03
 -0.10374116D-02  0.00000000D+00 -0.00000000D+00 -0.00000000D+00 -0.11973837D-07
  0.17080371D-07  0.00000000D+00  0.00000000D+00 -0.00000000D+00 -0.00000000D+00
 -0.11595955D-05  0.16541332D-05 -0.00000000D+00
MO   18     MO 0.0        OCC NO =    0.0000000  ORB. ENERGY =    0.022059
  0.31609086D-04  0.32103104D-03  0.16500814D+00 -0.67061393D-01  0.20216785D-01
 -0.52323095D-02  0.70924811D-02 -0.76338997D-02  0.75538641D-03 -0.60186090D-03
 -0.62425007D-05 -0.00000000D+00  0.00000000D+00 -0.42174425D-04  0.00000000D+00
 -0.00000000D+00  0.31420943D-02 -0.00000000D+00  0.00000000D+00 -0.33957543D-02
  0.00000000D+00 -0.00000000D+00 -0.19788278D-06 -0.11520265D-06 -0.11520265D-06
 -0.00000000D+00  0.00000000D+00  0.00000000D+00 -0.21095544D-05 -0.28646642D-05
 -0.28646642D-05  0.00000000D+00 -0.00000000D+00 -0.00000000D+00 -0.31609086D-04
 -0.32103104D-03 -0.16500814D+00  0.67061393D-01 -0.20216785D-01  0.52323095D-02
 -0.70924811D-02  0.76338997D-02 -0.75538641D-03  0.60186090D-03 -0.62425010D-05
  0.00000000D+00 -0.00000000D+00 -0.42174425D-04 -0.00000000D+00  0.00000000D+00
  0.31420943D-02  0.00000000D+00 -0.00000000D+00 -0.33957543D-02 -0.00000000D+00
  0.00000000D+00  0.19788278D-06  0.11520265D-06  0.11520265D-06 -0.00000000D+00
  0.00000000D+00 -0.00000000D+00  0.21095544D-05  0.28646642D-05  0.28646642D-05
  0.00000000D+00 -0.00000000D+00  0.00000000D+00
MO   19     MO 0.0        OCC NO =    0.0000000  ORB. ENERGY =    0.027956
  0.29687412D-02  0.74517839D-03 -0.16896260D-01  0.19176685D-01 -0.12683014D-01
 -0.45532305D-02 -0.34178926D-02  0.73267811D-02  0.16605834D-02 -0.18647526D-03
 -0.79900140D-04 -0.00000000D+00  0.00000000D+00  0.52335354D-03 -0.00000000D+00
 -0.00000000D+00  0.18846208D-04  0.00000000D+00  0.00000000D+00 -0.10700686D-03
  0.00000000D+00 -0.00000000D+00 -0.22671340D-06 -0.77330872D-07 -0.77330872D-07
 -0.00000000D+00  0.00000000D+00  0.00000000D+00  0.11665372D-05 -0.17125092D-05
 -0.17125092D-05 -0.00000000D+00 -0.00000000D+00 -0.00000000D+00  0.29687412D-02
  0.74517839D-03 -0.16896260D-01  0.19176685D-01 -0.12683014D-01 -0.45532305D-02
 -0.34178926D-02  0.73267811D-02  0.16605834D-02 -0.18647526D-03  0.79900140D-04
  0.00000000D+00 -0.00000000D+00 -0.52335354D-03  0.00000000D+00  0.00000000D+00
 -0.18846208D-04 -0.00000000D+00 -0.00000000D+00  0.10700686D-03  0.00000000D+00
  0.00000000D+00 -0.22671340D-06 -0.77330872D-07 -0.77330872D-07 -0.00000000D+00
  0.00000000D+00 -0.00000000D+00  0.11665372D-05 -0.17125092D-05 -0.17125092D-05
 -0.00000000D+00 -0.00000000D+00  0.00000000D+00
MO   20     MO 0.0        OCC NO =    0.0000000  ORB. ENERGY =    0.036138
  0.15836651D-03  0.32478423D-03  0.11061724D-01 -0.25290765D-02  0.31169629D-02
 -0.12877587D-01  0.25330458D-02  0.26341852D-02  0.30892810D-02 -0.85852050D-03
 -0.30718175D-04 -0.00000000D+00 -0.00000000D+00 -0.31598894D-04 -0.00000000D+00
 -0.00000000D+00  0.77613395D-03  0.00000000D+00  0.00000000D+00 -0.96301003D-03
 -0.00000000D+00 -0.00000000D+00 -0.87146215D-06 -0.88850379D-06 -0.88850379D-06
 -0.00000000D+00 -0.00000000D+00 -0.00000000D+00 -0.77442787D-05 -0.74638357D-05
 -0.74638357D-05 -0.00000000D+00 -0.00000000D+00  0.00000000D+00 -0.15836651D-03
 -0.32478423D-03 -0.11061724D-01  0.25290765D-02 -0.31169629D-02  0.12877587D-01
 -0.25330458D-02 -0.26341852D-02 -0.30892810D-02  0.85852050D-03 -0.30718175D-04
  0.00000000D+00  0.00000000D+00 -0.31598895D-04  0.00000000D+00  0.00000000D+00
  0.77613395D-03 -0.00000000D+00 -0.00000000D+00 -0.96301003D-03  0.00000000D+00
  0.00000000D+00  0.87146215D-06  0.88850379D-06  0.88850379D-06 -0.00000000D+00
 -0.00000000D+00  0.00000000D+00  0.77442787D-05  0.74638357D-05  0.74638357D-05
 -0.00000000D+00 -0.00000000D+00 -0.00000000D+00
MO   21     MO 0.0        OCC NO =    0.0000000  ORB. ENERGY =    0.037714
 -0.00000000D+00  0.00000000D+00 -0.00000000D+00  0.00000000D+00 -0.00000000D+00
  0.00000000D+00 -0.00000000D+00  0.00000000D+00 -0.00000000D+00  0.00000000D+00
  0.00000000D+00 -0.00000000D+00  0.00000000D+00 -0.00000000D+00 -0.00000000D+00
  0.00000000D+00  0.00000000D+00 -0.00000000D+00 -0.00000000D+00  0.00000000D+00
  0.00000000D+00 -0.00000000D+00  0.00000000D+00 -0.19991553D-07  0.19991553D-07
 -0.00000000D+00  0.00000000D+00  0.79353514D-07 -0.00000000D+00  0.27675682D-06
 -0.27675682D-06 -0.00000000D+00  0.00000000D+00 -0.10985453D-05 -0.00000000D+00
  0.00000000D+00 -0.00000000D+00 -0.00000000D+00  0.00000000D+00 -0.00000000D+00
  0.00000000D+00 -0.00000000D+00  0.00000000D+00  0.00000000D+00 -0.00000000D+00
  0.00000000D+00 -0.00000000D+00  0.00000000D+00  0.00000000D+00 -0.00000000D+00
 -0.00000000D+00 -0.00000000D+00  0.00000000D+00  0.00000000D+00  0.00000000D+00
 -0.00000000D+00  0.00000000D+00 -0.19991553D-07  0.19991553D-07  0.00000000D+00
 -0.00000000D+00  0.79353514D-07 -0.00000000D+00  0.27675682D-06 -0.27675682D-06
 -0.00000000D+00  0.00000000D+00 -0.10985453D-05
MO   22     MO 0.0        OCC NO =    0.0000000  ORB. ENERGY =    0.037714
 -0.00000000D+00  0.00000000D+00  0.00000000D+00  0.00000000D+00 -0.00000000D+00
  0.00000000D+00 -0.00000000D+00  0.00000000D+00 -0.00000000D+00  0.00000000D+00
  0.00000000D+00 -0.00000000D+00  0.00000000D+00 -0.00000000D+00 -0.00000000D+00
  0.00000000D+00  0.00000000D+00  0.00000000D+00 -0.00000000D+00  0.00000000D+00
 -0.00000000D+00  0.00000000D+00  0.00000000D+00  0.39676756D-07 -0.39676756D-07
  0.00000000D+00  0.00000000D+00  0.39983105D-07 -0.00000000D+00 -0.54927266D-06
  0.54927266D-06 -0.00000000D+00  0.00000000D+00 -0.55351364D-06 -0.00000000D+00
  0.00000000D+00 -0.00000000D+00 -0.00000000D+00  0.00000000D+00 -0.00000000D+00
  0.00000000D+00 -0.00000000D+00  0.00000000D+00 -0.00000000D+00 -0.00000000D+00
 -0.00000000D+00 -0.00000000D+00  0.00000000D+00  0.00000000D+00 -0.00000000D+00
  0.00000000D+00 -0.00000000D+00  0.00000000D+00  0.00000000D+00 -0.00000000D+00
  0.00000000D+00  0.00000000D+00  0.39676756D-07 -0.39676756D-07 -0.00000000D+00
  0.00000000D+00  0.39983105D-07 -0.00000000D+00 -0.54927266D-06  0.54927266D-06
  0.00000000D+00  0.00000000D+00 -0.55351364D-06
MO   23     MO 0.0        OCC NO =    0.0000000  ORB. ENERGY =    0.042080
  0.00000000D+00  0.00000000D+00 -0.00000000D+00  0.00000000D+00  0.00000000D+00
 -0.00000000D+00  0.00000000D+00  0.00000000D+00  0.00000000D+00 -0.00000000D+00
  0.00000000D+00 -0.22824393D-06 -0.16032917D-05 -0.00000000D+00  0.70627088D-05
  0.49611755D-04  0.00000000D+00 -0.28957526D-04 -0.20341115D-03 -0.00000000D+00
  0.42962972D-04  0.30179190D-03  0.00000000D+00  0.00000000D+00  0.00000000D+00
 -0.79991066D-07 -0.56189449D-06 -0.00000000D+00 -0.00000000D+00  0.00000000D+00
  0.00000000D+00  0.39275593D-06  0.27589005D-05  0.00000000D+00  0.00000000D+00
  0.00000000D+00  0.00000000D+00  0.00000000D+00 -0.00000000D+00  0.00000000D+00
 -0.00000000D+00 -0.00000000D+00 -0.00000000D+00  0.00000000D+00  0.00000000D+00
 -0.22824393D-06 -0.16032917D-05  0.00000000D+00  0.70627088D-05  0.49611755D-04
 -0.00000000D+00 -0.28957526D-04 -0.20341115D-03  0.00000000D+00  0.42962972D-04
  0.30179190D-03 -0.00000000D+00 -0.00000000D+00 -0.00000000D+00  0.79991066D-07
  0.56189449D-06  0.00000000D+00 -0.00000000D+00 -0.00000000D+00 -0.00000000D+00
 -0.39275593D-06 -0.27589005D-05 -0.00000000D+00
MO   24     MO 0.0        OCC NO =    0.0000000  ORB. ENERGY =    0.042080
 -0.00000000D+00  0.00000000D+00 -0.00000000D+00  0.00000000D+00  0.00000000D+00
  0.00000000D+00  0.00000000D+00 -0.00000000D+00 -0.00000000D+00  0.00000000D+00
  0.14254109D-12  0.16032917D-05 -0.22824393D-06 -0.00000000D+00 -0.49611755D-04
  0.70627088D-05  0.00000000D+00  0.20341115D-03 -0.28957526D-04 -0.00000000D+00
 -0.30179190D-03  0.42962972D-04  0.00000000D+00 -0.00000000D+00 -0.00000000D+00
  0.56189449D-06 -0.79991066D-07 -0.00000000D+00 -0.00000000D+00 -0.00000000D+00
 -0.00000000D+00 -0.27589005D-05  0.39275593D-06 -0.00000000D+00 -0.00000000D+00
  0.00000000D+00 -0.00000000D+00  0.00000000D+00 -0.00000000D+00  0.00000000D+00
 -0.00000000D+00 -0.00000000D+00 -0.00000000D+00  0.00000000D+00 -0.14254109D-12
  0.16032917D-05 -0.22824393D-06  0.00000000D+00 -0.49611755D-04  0.70627088D-05