[Molden Format]
[Atoms] AU
E+       1       4     0.00000000     0.00000000     0.00000000
E+       2       4    23.20000000     0.00000000     0.00000000
[GTO]
  1 0
s  1 1.00
   1.0000000000E-04   1.0000000000E+00
s  1 1.00
   3.0000000000E-04   1.0000000000E+00
s  1 1.00
   9.0000000000E-04   1.0000000000E+00
s  1 1.00
   2.7000000000E-03   1.0000000000E+00
s  1 1.00
   8.1000000000E-03   1.0000000000E+00
s  1 1.00
   2.4300000000E-02   1.0000000000E+00
s  1 1.00
   7.2900000000E-02   1.0000000000E+00
s  1 1.00
   2.1870000000E-01   1.0000000000E+00
s  1 1.00
   6.5610000000E-01   1.0000000000E+00
s  1 1.00
   1.9683000000E+00   1.0000000000E+00
p  1 1.00
   1.0000000000E-04   1.0000000000E+00
p  1 1.00
   3.0000000000E-04   1.0000000000E+00
p  1 1.00
   9.0000000000E-04   1.0000000000E+00
p  1 1.00
   2.7000000000E-03   1.0000000000E+00
d  1 1.00
   1.0000000000E-04   1.0000000000E+00
d  1 1.00
   3.0000000000E-04   1.0000000000E+00
 
  2 0
s  1 1.00
   1.0000000000E-04   1.0000000000E+00
s  1 1.00
   3.0000000000E-04   1.0000000000E+00
s  1 1.00
   9.0000000000E-04   1.0000000000E+00
s  1 1.00
   2.7000000000E-03   1.0000000000E+00
s  1 1.00
   8.1000000000E-03   1.0000000000E+00
s  1 1.00
   2.4300000000E-02   1.0000000000E+00
s  1 1.00
   7.2900000000E-02   1.0000000000E+00
s  1 1.00
   2.1870000000E-01   1.0000000000E+00
s  1 1.00
   6.5610000000E-01   1.0000000000E+00
s  1 1.00
   1.9683000000E+00   1.0000000000E+00
p  1 1.00
   1.0000000000E-04   1.0000000000E+00
p  1 1.00
   3.0000000000E-04   1.0000000000E+00
p  1 1.00
   9.0000000000E-04   1.0000000000E+00
p  1 1.00
   2.7000000000E-03   1.0000000000E+00
d  1 1.00
   1.0000000000E-04   1.0000000000E+00
d  1 1.00
   3.0000000000E-04   1.0000000000E+00
 
 
[MO]
Ene=    -3.50607E-03
Spin= Alpha
Occup=   1.0000000000
   1      -0.00089719
   2       0.01419785
   3      -0.03450570
   4      -0.25518098
   5      -0.20877469
   6      -0.17899987
   7      -0.10822675
   8       0.08868486
   9       0.00621803
  10      -0.00011084
  11      -0.01048256
  12       0.00000000
  13      -0.00000000
  14      -0.02083539
  15       0.00000000
  16      -0.00000000
  17      -0.00998892
  18       0.00000000
  19       0.00000000
  20      -0.00534826
  21      -0.00000000
  22      -0.00000000
  23      -0.00137407
  24       0.00051037
  25       0.00051037
  26       0.00000000
  27      -0.00000000
  28       0.00000000
  29      -0.00784293
  30       0.00042453
  31       0.00042453
  32       0.00000000
  33      -0.00000000
  34      -0.00000000
  35      -0.00089719
  36       0.01419785
  37      -0.03450570
  38      -0.25518098
  39      -0.20877469
  40      -0.17899987
  41      -0.10822675
  42       0.08868486
  43       0.00621803
  44      -0.00011084
  45       0.01048256
  46      -0.00000000
  47       0.00000000
  48       0.02083539
  49      -0.00000000
  50       0.00000000
  51       0.00998892
  52       0.00000000
  53       0.00000000
  54       0.00534826
  55       0.00000000
  56      -0.00000000
  57      -0.00137407
  58       0.00051037
  59       0.00051037
  60       0.00000000
  61       0.00000000
  62      -0.00000000
  63      -0.00784293
  64       0.00042453
  65       0.00042453
  66       0.00000000
  67      -0.00000000
  68       0.00000000
Ene=    -1.21248E-03
Spin= Alpha
Occup=   0.0000000000
   1       0.00013101
   2      -0.00265476
   3      -0.47768182
   4      -0.33282210
   5      -0.24432502
   6      -0.20131182
   7      -0.11505938
   8       0.09525479
   9       0.00688392
  10      -0.00014537
  11      -0.00118813
  12       0.00000000
  13      -0.00000000
  14       0.00889083
  15      -0.00000000
  16      -0.00000000
  17      -0.16653817
  18       0.00000000
  19      -0.00000000
  20       0.07509993
  21      -0.00000000
  22       0.00000000
  23       0.00366615
  24      -0.00687152
  25      -0.00687152
  26       0.00000000
  27      -0.00000000
  28      -0.00000000
  29      -0.00141960
  30       0.01435581
  31       0.01435581
  32      -0.00000000
  33      -0.00000000
  34       0.00000000
  35      -0.00013101
  36       0.00265476
  37       0.47768182
  38       0.33282210
  39       0.24432502
  40       0.20131182
  41       0.11505938
  42      -0.09525479
  43      -0.00688392
  44       0.00014537
  45      -0.00118813
  46      -0.00000000
  47       0.00000000
  48       0.00889083
  49       0.00000000
  50       0.00000000
  51      -0.16653817
  52      -0.00000000
  53       0.00000000
  54       0.07509993
  55       0.00000000
  56       0.00000000
  57      -0.00366615
  58       0.00687152
  59       0.00687152
  60       0.00000000
  61      -0.00000000
  62      -0.00000000
  63       0.00141960
  64      -0.01435581
  65      -0.01435581
  66      -0.00000000
  67      -0.00000000
  68       0.00000000
Ene=     3.65637E-03
Spin= Alpha
Occup=   0.0000000000
   1       0.92463331
   2      -0.15590698
   3      -1.15076287
   4       0.87826483
   5      -0.04736924
   6       0.12051305
   7       0.02722662
   8      -0.03012309
   9      -0.00348717
  10       0.00023130
  11      -3.41165482
  12       0.00000000
  13       0.00000000
  14       1.12864704
  15       0.00000000
  16       0.00000000
  17      -0.48667491
  18       0.00000000
  19      -0.00000000
  20       0.09591230
  21       0.00000000
  22       0.00000000
  23      -0.71016675
  24      -0.01861795
  25      -0.01861795
  26       0.00000000
  27       0.00000000
  28      -0.00000000
  29       0.27784937
  30      -0.07493419
  31      -0.07493419
  32       0.00000000
  33       0.00000000
  34       0.00000000
  35       0.92463331
  36      -0.15590698
  37      -1.15076287
  38       0.87826483
  39      -0.04736924
  40       0.12051305
  41       0.02722662
  42      -0.03012309
  43      -0.00348717
  44       0.00023130
  45       3.41165482
  46      -0.00000000
  47      -0.00000000
  48      -1.12864704
  49      -0.00000000
  50      -0.00000000
  51       0.48667491
  52       0.00000000
  53       0.00000000
  54      -0.09591230
  55       0.00000000
  56      -0.00000000
  57      -0.71016675
  58      -0.01861795
  59      -0.01861795
  60       0.00000000
  61      -0.00000000
  62       0.00000000
  63       0.27784937
  64      -0.07493419
  65      -0.07493419
  66       0.00000000
  67       0.00000000
  68      -0.00000000
Ene=     4.20570E-03
Spin= Alpha
Occup=   0.0000000000
   1       0.00000000
   2       0.00000000
   3       0.00000000
   4      -0.00000000
   5      -0.00000000
   6      -0.00000000
   7      -0.00000000
   8       0.00000000
   9      -0.00000000
  10       0.00000000
  11      -0.00000000
  12       0.00154102
  13      -0.02955347
  14      -0.00000000
  15      -0.00590719
  16       0.11328759
  17       0.00000000
  18       0.02435684
  19      -0.46711304
  20      -0.00000000
  21       0.00892158
  22      -0.17109712
  23      -0.00000000
  24      -0.00000000
  25      -0.00000000
  26       0.00215263
  27      -0.04128291
  28      -0.00000000
  29      -0.00000000
  30      -0.00000000
  31      -0.00000000
  32      -0.00017310
  33       0.00331964
  34       0.00000000
  35       0.00000000
  36       0.00000000
  37      -0.00000000
  38       0.00000000
  39      -0.00000000
  40       0.00000000
  41      -0.00000000
  42       0.00000000
  43      -0.00000000
  44       0.00000000
  45       0.00000000
  46       0.00154102
  47      -0.02955347
  48       0.00000000
  49      -0.00590719
  50       0.11328759
  51       0.00000000
  52       0.02435684
  53      -0.46711304
  54       0.00000000
  55       0.00892158
  56      -0.17109712
  57       0.00000000
  58       0.00000000
  59       0.00000000
  60      -0.00215263
  61       0.04128291
  62       0.00000000
  63      -0.00000000
  64       0.00000000
  65       0.00000000
  66       0.00017310
  67      -0.00331964
  68      -0.00000000
Ene=     4.20570E-03
Spin= Alpha
Occup=   0.0000000000
   1       0.00000000
   2      -0.00000000
   3       0.00000000
   4      -0.00000000
   5       0.00000000
   6      -0.00000000
   7       0.00000000
   8      -0.00000000
   9       0.00000000
  10       0.00000000
  11      -0.00000000
  12      -0.02955347
  13      -0.00154102
  14       0.00000000
  15       0.11328759
  16       0.00590719
  17       0.00000000
  18      -0.46711304
  19      -0.02435684
  20      -0.00000000
  21      -0.17109712
  22      -0.00892158
  23      -0.00000000
  24       0.00000000
  25       0.00000000
  26      -0.04128291
  27      -0.00215263
  28      -0.00000000
  29       0.00000000
  30      -0.00000000
  31      -0.00000000
  32       0.00331964
  33       0.00017310
  34       0.00000000
  35       0.00000000
  36      -0.00000000
  37      -0.00000000
  38       0.00000000
  39       0.00000000
  40       0.00000000
  41       0.00000000
  42      -0.00000000
  43       0.00000000
  44      -0.00000000
  45       0.00000000
  46      -0.02955347
  47      -0.00154102
  48      -0.00000000
  49       0.11328759
  50       0.00590719
  51       0.00000000
  52      -0.46711304
  53      -0.02435684
  54      -0.00000000
  55      -0.17109712
  56      -0.00892158
  57      -0.00000000
  58      -0.00000000
  59       0.00000000
  60       0.04128291
  61       0.00215263
  62       0.00000000
  63       0.00000000
  64       0.00000000
  65       0.00000000
  66      -0.00331964
  67      -0.00017310
  68      -0.00000000
Ene=     6.26000E-03
Spin= Alpha
Occup=   0.0000000000
   1       0.01520369
   2       0.00151890
   3      -5.99392376
   4       0.35082596
   5       0.36349557
   6       0.06311577
   7       0.07696899
   8      -0.05579023
   9      -0.00274604
  10      -0.00010484
  11      -0.11822111
  12      -0.00000000
  13      -0.00000000
  14      -0.01511198
  15       0.00000000
  16       0.00000000
  17      -1.59969481
  18      -0.00000000
  19      -0.00000000
  20       0.17746245
  21      -0.00000000
  22      -0.00000000
  23      -0.14687945
  24      -0.23386470
  25      -0.23386470
  26      -0.00000000
  27      -0.00000000
  28      -0.00000000
  29      -0.36450127
  30      -0.21400974
  31      -0.21400974
  32       0.00000000
  33       0.00000000
  34       0.00000000
  35      -0.01520369
  36      -0.00151890
  37       5.99392376
  38      -0.35082596
  39      -0.36349557
  40      -0.06311577
  41      -0.07696899
  42       0.05579023
  43       0.00274604
  44       0.00010484
  45      -0.11822111
  46       0.00000000
  47       0.00000000
  48      -0.01511198
  49      -0.00000000
  50      -0.00000000
  51      -1.59969481
  52       0.00000000
  53       0.00000000
  54       0.17746245
  55       0.00000000
  56       0.00000000
  57       0.14687945
  58       0.23386470
  59       0.23386470
  60      -0.00000000
  61      -0.00000000
  62      -0.00000000
  63       0.36450127
  64       0.21400974
  65       0.21400974
  66       0.00000000
  67       0.00000000
  68       0.00000000
Ene=     6.89527E-03
Spin= Alpha
Occup=   0.0000000000
   1      -0.94486117
   2       0.59214871
   3       0.06535101
   4      -0.73633197
   5       0.26108014
   6      -0.03426890
   7       0.02545777
   8      -0.01317325
   9       0.00030669
  10      -0.00016073
  11       4.47669074
  12       0.00000000
  13      -0.00000000
  14      -1.25918928
  15      -0.00000000
  16       0.00000000
  17       0.45397625
  18       0.00000000
  19      -0.00000000
  20       0.55500366
  21      -0.00000000
  22      -0.00000000
  23       0.89536553
  24      -0.01371416
  25      -0.01371416
  26       0.00000000
  27      -0.00000000
  28       0.00000000
  29      -0.45479083
  30      -0.06027712
  31      -0.06027712
  32      -0.00000000
  33       0.00000000
  34      -0.00000000
  35      -0.94486117
  36       0.59214871
  37       0.06535101
  38      -0.73633197
  39       0.26108014
  40      -0.03426890
  41       0.02545777
  42      -0.01317325
  43       0.00030669
  44      -0.00016073
  45      -4.47669074
  46      -0.00000000
  47       0.00000000
  48       1.25918928
  49       0.00000000
  50      -0.00000000
  51      -0.45397625
  52      -0.00000000
  53       0.00000000
  54      -0.55500366
  55       0.00000000
  56      -0.00000000
  57       0.89536553
  58      -0.01371416
  59      -0.01371416
  60       0.00000000
  61      -0.00000000
  62      -0.00000000
  63      -0.45479083
  64      -0.06027712
  65      -0.06027712
  66      -0.00000000
  67       0.00000000
  68      -0.00000000
Ene=     7.13857E-03
Spin= Alpha
Occup=   0.0000000000
   1       0.00000000
   2      -0.00000000
   3       0.00000000
   4      -0.00000000
   5       0.00000000
   6      -0.00000000
   7       0.00000000
   8      -0.00000000
   9      -0.00000000
  10       0.00000000
  11       0.00000000
  12      -9.09342451
  13       6.52590237
  14      -0.00000000
  15       2.01585644
  16      -1.44668076
  17       0.00000000
  18      -0.63057264
  19       0.45253089
  20      -0.00000000
  21      -0.52498816
  22       0.37675811
  23      -0.00000000
  24      -0.00000000
  25      -0.00000000
  26      -1.05251676
  27       0.75533938
  28       0.00000000
  29      -0.00000000
  30      -0.00000000
  31      -0.00000000
  32       0.35726860
  33      -0.25639406
  34      -0.00000000
  35      -0.00000000
  36       0.00000000
  37      -0.00000000
  38       0.00000000
  39      -0.00000000
  40       0.00000000
  41      -0.00000000
  42       0.00000000
  43       0.00000000
  44      -0.00000000
  45       0.00000000
  46       9.09342451
  47      -6.52590237
  48      -0.00000000
  49      -2.01585644
  50       1.44668076
  51       0.00000000
  52       0.63057264
  53      -0.45253089
  54       0.00000000
  55       0.52498816
  56      -0.37675811
  57      -0.00000000
  58       0.00000000
  59       0.00000000
  60      -1.05251676
  61       0.75533938
  62      -0.00000000
  63       0.00000000
  64       0.00000000
  65       0.00000000
  66       0.35726860
  67      -0.25639406
  68       0.00000000
Ene=     7.13857E-03
Spin= Alpha
Occup=   0.0000000000
   1       0.00000000
   2       0.00000000
   3      -0.00000000
   4       0.00000000
   5      -0.00000000
   6      -0.00000000
   7      -0.00000000
   8       0.00000000
   9       0.00000000
  10      -0.00000000
  11       0.00000000
  12      -6.52590237
  13      -9.09342451
  14       0.00000000
  15       1.44668076
  16       2.01585644
  17      -0.00000000
  18      -0.45253089
  19      -0.63057264
  20      -0.00000000
  21      -0.37675811
  22      -0.52498816
  23       0.00000000
  24       0.00000000
  25       0.00000000
  26      -0.75533938
  27      -1.05251676
  28       0.00000000
  29       0.00000000
  30       0.00000000
  31       0.00000000
  32       0.25639406
  33       0.35726860
  34      -0.00000000
  35      -0.00000000
  36      -0.00000000
  37       0.00000000
  38      -0.00000000
  39       0.00000000
  40       0.00000000
  41       0.00000000
  42      -0.00000000
  43       0.00000000
  44      -0.00000000
  45       0.00000000
  46       6.52590237
  47       9.09342451
  48       0.00000000
  49      -1.44668076
  50      -2.01585644
  51      -0.00000000
  52       0.45253089
  53       0.63057264
  54      -0.00000000
  55       0.37675811
  56       0.52498816
  57      -0.00000000
  58      -0.00000000
  59      -0.00000000
  60      -0.75533938
  61      -1.05251676
  62      -0.00000000
  63      -0.00000000
  64      -0.00000000
  65      -0.00000000
  66       0.25639406
  67       0.35726860
  68       0.00000000
Ene=     1.06391E-02
Spin= Alpha
Occup=   0.0000000000
   1       0.00000000
   2      -0.00000000
   3      -0.00000000
   4      -0.00000000
   5      -0.00000000
   6      -0.00000000
   7      -0.00000000
   8       0.00000000
   9       0.00000000
  10      -0.00000000
  11      -0.00000000
  12      -0.01807216
  13       0.04016832
  14       0.00000000
  15       0.06901690
  16      -0.15340127
  17      -0.00000000
  18      -0.33513618
  19       0.74489464
  20      -0.00000000
  21       0.36091403
  22      -0.80219009
  23      -0.00000000
  24      -0.00000000
  25      -0.00000000
  26      -0.01912673
  27       0.04251227
  28      -0.00000000
  29      -0.00000000
  30       0.00000000
  31       0.00000000
  32      -0.00422136
  33       0.00938266
  34      -0.00000000
  35       0.00000000
  36      -0.00000000
  37       0.00000000
  38       0.00000000
  39       0.00000000
  40       0.00000000
  41       0.00000000
  42      -0.00000000
  43      -0.00000000
  44       0.00000000
  45       0.00000000
  46      -0.01807216
  47       0.04016832
  48      -0.00000000
  49       0.06901690
  50      -0.15340127
  51      -0.00000000
  52      -0.33513618
  53       0.74489464
  54      -0.00000000
  55       0.36091403
  56      -0.80219009
  57      -0.00000000
  58       0.00000000
  59       0.00000000
  60       0.01912673
  61      -0.04251227
  62       0.00000000
  63       0.00000000
  64      -0.00000000
  65      -0.00000000
  66       0.00422136
  67      -0.00938266
  68       0.00000000
Ene=     1.06391E-02
Spin= Alpha
Occup=   0.0000000000
   1       0.00000000
   2      -0.00000000
   3      -0.00000000
   4      -0.00000000
   5      -0.00000000
   6      -0.00000000
   7      -0.00000000
   8       0.00000000
   9       0.00000000
  10      -0.00000000
  11      -0.00000000
  12       0.04016832
  13       0.01807216
  14       0.00000000
  15      -0.15340127
  16      -0.06901690
  17      -0.00000000
  18       0.74489464
  19       0.33513618
  20      -0.00000000
  21      -0.80219009
  22      -0.36091403
  23      -0.00000000
  24      -0.00000000
  25      -0.00000000
  26       0.04251227
  27       0.01912673
  28      -0.00000000
  29       0.00000000
  30       0.00000000
  31       0.00000000
  32       0.00938266
  33       0.00422136
  34       0.00000000
  35       0.00000000
  36      -0.00000000
  37       0.00000000
  38       0.00000000
  39       0.00000000
  40       0.00000000
  41       0.00000000
  42      -0.00000000
  43       0.00000000
  44      -0.00000000
  45       0.00000000
  46       0.04016832
  47       0.01807216
  48      -0.00000000
  49      -0.15340127
  50      -0.06901690
  51      -0.00000000
  52       0.74489464
  53       0.33513618
  54      -0.00000000
  55      -0.80219009
  56      -0.36091403
  57      -0.00000000
  58       0.00000000
  59       0.00000000
  60      -0.04251227
  61      -0.01912673
  62       0.00000000
  63       0.00000000
  64      -0.00000000
  65      -0.00000000
  66      -0.00938266
  67      -0.00422136
  68      -0.00000000
Ene=     1.07100E-02
Spin= Alpha
Occup=   0.0000000000
   1      -0.00885421
   2       0.03731559
   3      10.52151888
   4       0.81024384
   5       0.02601574
   6       0.04997075
   7       0.01621272
   8      -0.01565999
   9      -0.00154239
  10       0.00007970
  11       0.07067073
  12       0.00000000
  13       0.00000000
  14      -0.11048551
  15      -0.00000000
  16      -0.00000000
  17       3.35890378
  18       0.00000000
  19       0.00000000
  20       1.91627000
  21      -0.00000000
  22      -0.00000000
  23       0.01910419
  24       0.20062610
  25       0.20062610
  26       0.00000000
  27       0.00000000
  28       0.00000000
  29       0.18815424
  30      -0.09004285
  31      -0.09004285
  32      -0.00000000
  33      -0.00000000
  34      -0.00000000
  35       0.00885421
  36      -0.03731559
  37     -10.52151888
  38      -0.81024384
  39      -0.02601574
  40      -0.04997075
  41      -0.01621272
  42       0.01565999
  43       0.00154239
  44      -0.00007970
  45       0.07067073
  46      -0.00000000
  47      -0.00000000
  48      -0.11048551
  49       0.00000000
  50       0.00000000
  51       3.35890378
  52      -0.00000000
  53      -0.00000000
  54       1.91627000
  55       0.00000000
  56       0.00000000
  57      -0.01910419
  58      -0.20062610
  59      -0.20062610
  60       0.00000000
  61       0.00000000
  62      -0.00000000
  63      -0.18815424
  64       0.09004285
  65       0.09004285
  66      -0.00000000
  67      -0.00000000
  68       0.00000000
Ene=     1.30907E-02
Spin= Alpha
Occup=   0.0000000000
   1      -0.75854674
   2       0.72701110
   3      -0.02017231
   4      -1.50866528
   5       1.25339566
   6      -0.08740898
   7       0.14231084
   8      -0.08216221
   9      -0.00020848
  10      -0.00070658
  11       5.39404245
  12       0.00000000
  13      -0.00000000
  14      -0.76402387
  15      -0.00000000
  16       0.00000000
  17       0.67702984
  18       0.00000000
  19      -0.00000000
  20      -0.36423105
  21      -0.00000000
  22       0.00000000
  23       1.01962647
  24      -0.07245927
  25      -0.07245927
  26       0.00000000
  27      -0.00000000
  28       0.00000000
  29      -0.45009695
  30      -0.24776087
  31      -0.24776087
  32      -0.00000000
  33       0.00000000
  34      -0.00000000
  35      -0.75854674
  36       0.72701110
  37      -0.02017231
  38      -1.50866528
  39       1.25339566
  40      -0.08740898
  41       0.14231084
  42      -0.08216221
  43      -0.00020848
  44      -0.00070658
  45      -5.39404245
  46      -0.00000000
  47       0.00000000
  48       0.76402387
  49       0.00000000
  50      -0.00000000
  51      -0.67702984
  52      -0.00000000
  53       0.00000000
  54       0.36423105
  55       0.00000000
  56      -0.00000000
  57       1.01962647
  58      -0.07245927
  59      -0.07245927
  60       0.00000000
  61      -0.00000000
  62      -0.00000000
  63      -0.45009695
  64      -0.24776087
  65      -0.24776087
  66      -0.00000000
  67       0.00000000
  68       0.00000000
Ene=     1.58765E-02
Spin= Alpha
Occup=   0.0000000000
   1      -0.00000000
   2       0.00000000
   3       0.00000000
   4      -0.00000000
   5       0.00000000
   6      -0.00000000
   7       0.00000000
   8      -0.00000000
   9       0.00000000
  10      -0.00000000
  11      -0.00000000
  12      25.84104516
  13       6.45849844
  14       0.00000000
  15      -5.46559378
  16      -1.36602559
  17       0.00000000
  18       2.22120712
  19       0.55515025
  20      -0.00000000
  21      -1.13889720
  22      -0.28464661
  23      -0.00000000
  24       0.00000000
  25       0.00000000
  26       2.98972023
  27       0.74722610
  28      -0.00000000
  29       0.00000000
  30      -0.00000000
  31      -0.00000000
  32      -0.95470443
  33      -0.23861098
  34       0.00000000
  35       0.00000000
  36      -0.00000000
  37      -0.00000000
  38       0.00000000
  39      -0.00000000
  40       0.00000000
  41      -0.00000000
  42       0.00000000
  43      -0.00000000
  44       0.00000000
  45      -0.00000000
  46     -25.84104516
  47      -6.45849844
  48       0.00000000
  49       5.46559378
  50       1.36602559
  51       0.00000000
  52      -2.22120712
  53      -0.55515025
  54      -0.00000000
  55       1.13889720
  56       0.28464661
  57       0.00000000
  58      -0.00000000
  59      -0.00000000
  60       2.98972023
  61       0.74722610
  62       0.00000000
  63      -0.00000000
  64      -0.00000000
  65      -0.00000000
  66      -0.95470443
  67      -0.23861098
  68      -0.00000000
Ene=     1.58765E-02
Spin= Alpha
Occup=   0.0000000000
   1       0.00000000
   2       0.00000000
   3      -0.00000000
   4      -0.00000000
   5       0.00000000
   6      -0.00000000
   7       0.00000000
   8      -0.00000000
   9       0.00000000
  10      -0.00000000
  11       0.00000000
  12       6.45849844
  13     -25.84104516
  14       0.00000000
  15      -1.36602559
  16       5.46559378
  17      -0.00000000
  18       0.55515025
  19      -2.22120712
  20      -0.00000000
  21      -0.28464661
  22       1.13889720
  23       0.00000000
  24       0.00000000
  25       0.00000000
  26       0.74722610
  27      -2.98972023
  28       0.00000000
  29       0.00000000
  30       0.00000000
  31       0.00000000
  32      -0.23861098
  33       0.95470443
  34      -0.00000000
  35      -0.00000000
  36      -0.00000000
  37       0.00000000
  38       0.00000000
  39      -0.00000000
  40       0.00000000
  41      -0.00000000
  42       0.00000000
  43      -0.00000000
  44       0.00000000
  45       0.00000000
  46      -6.45849844
  47      25.84104516
  48       0.00000000
  49       1.36602559
  50      -5.46559378
  51      -0.00000000
  52      -0.55515025
  53       2.22120712
  54      -0.00000000
  55       0.28464661
  56      -1.13889720
  57       0.00000000
  58      -0.00000000
  59      -0.00000000
  60       0.74722610
  61      -2.98972023
  62      -0.00000000
  63      -0.00000000
  64      -0.00000000
  65      -0.00000000
  66      -0.23861098
  67       0.95470443
  68       0.00000000
Ene=     1.60975E-02
Spin= Alpha
Occup=   0.0000000000
   1      -0.01590681
   2      -0.04909672
   3       2.01694649
   4      -3.48778376
   5       1.33966754
   6      -0.11442896
   7       0.12078138
   8      -0.06596318
   9       0.00063911
  10      -0.00068318
  11       0.12108415
  12       0.00000000
  13      -0.00000000
  14       0.19893286
  15       0.00000000
  16      -0.00000000
  17      -0.33375845
  18      -0.00000000
  19       0.00000000
  20      -0.69968826
  21       0.00000000
  22      -0.00000000
  23       0.21818406
  24       0.17180037
  25       0.17180037
  26       0.00000000
  27      -0.00000000
  28       0.00000000
  29       0.46221593
  30       0.49238800
  31       0.49238800
  32       0.00000000
  33      -0.00000000
  34      -0.00000000
  35       0.01590681
  36       0.04909672
  37      -2.01694649
  38       3.48778376
  39      -1.33966754
  40       0.11442896
  41      -0.12078138
  42       0.06596318
  43      -0.00063911
  44       0.00068318
  45       0.12108415
  46      -0.00000000
  47       0.00000000
  48       0.19893286
  49      -0.00000000
  50       0.00000000
  51      -0.33375845
  52       0.00000000
  53      -0.00000000
  54      -0.69968826
  55      -0.00000000
  56       0.00000000
  57      -0.21818406
  58      -0.17180037
  59      -0.17180037
  60       0.00000000
  61      -0.00000000
  62      -0.00000000
  63      -0.46221593
  64      -0.49238800
  65      -0.49238800
  66       0.00000000
  67      -0.00000000
  68       0.00000000
Ene=     1.67181E-02
Spin= Alpha
Occup=   0.0000000000
   1      -3.44288767
   2       2.74886902
   3      -1.81466676
   4       1.14311483
   5      -0.46410609
   6       0.03328679
   7      -0.03972011
   8       0.02251144
   9       0.00003385
  10       0.00019712
  11      17.01939038
  12      -0.00000000
  13       0.00000000
  14      -4.77272769
  15      -0.00000000
  16      -0.00000000
  17       1.69498683
  18       0.00000000
  19      -0.00000000
  20      -0.74039630
  21      -0.00000000
  22       0.00000000
  23       3.38807021
  24      -0.07310705
  25      -0.07310705
  26      -0.00000000
  27       0.00000000
  28       0.00000000
  29      -1.85637624
  30      -0.34861565
  31      -0.34861565
  32      -0.00000000
  33      -0.00000000
  34      -0.00000000
  35      -3.44288767
  36       2.74886902
  37      -1.81466676
  38       1.14311483
  39      -0.46410609
  40       0.03328679
  41      -0.03972011
  42       0.02251144
  43       0.00003385
  44       0.00019712
  45     -17.01939038
  46       0.00000000
  47      -0.00000000
  48       4.77272769
  49       0.00000000
  50       0.00000000
  51      -1.69498683
  52      -0.00000000
  53       0.00000000
  54       0.74039630
  55       0.00000000
  56      -0.00000000
  57       3.38807021
  58      -0.07310705
  59      -0.07310705
  60      -0.00000000
  61       0.00000000
  62      -0.00000000
  63      -1.85637624
  64      -0.34861565
  65      -0.34861565
  66      -0.00000000
  67      -0.00000000
  68       0.00000000
Ene=     2.25751E-02
Spin= Alpha
Occup=   0.0000000000
   1       0.05934118
   2       0.24426225
   3      20.37366636
   4      -3.65095276
   5       0.82095931
   6      -0.11221914
   7       0.05400634
   8      -0.02347565
   9       0.00165080
  10      -0.00044530
  11      -0.45029763
  12       0.00000000
  13       0.00000000
  14      -0.79153837
  15      -0.00000000
  16      -0.00000000
  17       9.20531711
  18       0.00000000
  19       0.00000000
  20      -2.33633481
  21       0.00000000
  22       0.00000000
  23      -0.99260299
  24      -0.55545207
  25      -0.55545207
  26       0.00000000
  27       0.00000000
  28       0.00000000
  29      -1.56527371
  30      -2.09801281
  31      -2.09801281
  32      -0.00000000
  33      -0.00000000
  34      -0.00000000
  35      -0.05934118
  36      -0.24426225
  37     -20.37366636
  38       3.65095276
  39      -0.82095931
  40       0.11221914
  41      -0.05400634
  42       0.02347565
  43      -0.00165080
  44       0.00044530
  45      -0.45029763
  46      -0.00000000
  47      -0.00000000
  48      -0.79153837
  49       0.00000000
  50       0.00000000
  51       9.20531711
  52      -0.00000000
  53      -0.00000000
  54      -2.33633481
  55      -0.00000000
  56      -0.00000000
  57       0.99260299
  58       0.55545207
  59       0.55545207
  60       0.00000000
  61       0.00000000
  62      -0.00000000
  63       1.56527371
  64       2.09801281
  65       2.09801281
  66      -0.00000000
  67      -0.00000000
  68       0.00000000
Ene=     2.82536E-02
Spin= Alpha
Occup=   0.0000000000
   1       4.63067611
   2       1.30670685
   3      -4.66867026
   4       2.26181629
   5      -0.58539188
   6      -0.13186338
   7      -0.03205607
   8       0.03408954
   9       0.00384978
  10      -0.00023304
  11      -6.00212885
  12      -0.00000000