[Molden Format]
[Atoms] AU
E+       1       4     0.00000000     0.00000000     0.00000000
E+       2       4    53.00000000     0.00000000     0.00000000
[GTO]
  1 0
s  1 1.00
   1.0000000000E-04   1.0000000000E+00
s  1 1.00
   3.0000000000E-04   1.0000000000E+00
s  1 1.00
   9.0000000000E-04   1.0000000000E+00
s  1 1.00
   2.7000000000E-03   1.0000000000E+00
s  1 1.00
   8.1000000000E-03   1.0000000000E+00
s  1 1.00
   2.4300000000E-02   1.0000000000E+00
s  1 1.00
   7.2900000000E-02   1.0000000000E+00
s  1 1.00
   2.1870000000E-01   1.0000000000E+00
s  1 1.00
   6.5610000000E-01   1.0000000000E+00
s  1 1.00
   1.9683000000E+00   1.0000000000E+00
p  1 1.00
   1.0000000000E-04   1.0000000000E+00
p  1 1.00
   3.0000000000E-04   1.0000000000E+00
p  1 1.00
   9.0000000000E-04   1.0000000000E+00
p  1 1.00
   2.7000000000E-03   1.0000000000E+00
d  1 1.00
   1.0000000000E-04   1.0000000000E+00
d  1 1.00
   3.0000000000E-04   1.0000000000E+00
 
  2 0
s  1 1.00
   1.0000000000E-04   1.0000000000E+00
s  1 1.00
   3.0000000000E-04   1.0000000000E+00
s  1 1.00
   9.0000000000E-04   1.0000000000E+00
s  1 1.00
   2.7000000000E-03   1.0000000000E+00
s  1 1.00
   8.1000000000E-03   1.0000000000E+00
s  1 1.00
   2.4300000000E-02   1.0000000000E+00
s  1 1.00
   7.2900000000E-02   1.0000000000E+00
s  1 1.00
   2.1870000000E-01   1.0000000000E+00
s  1 1.00
   6.5610000000E-01   1.0000000000E+00
s  1 1.00
   1.9683000000E+00   1.0000000000E+00
p  1 1.00
   1.0000000000E-04   1.0000000000E+00
p  1 1.00
   3.0000000000E-04   1.0000000000E+00
p  1 1.00
   9.0000000000E-04   1.0000000000E+00
p  1 1.00
   2.7000000000E-03   1.0000000000E+00
d  1 1.00
   1.0000000000E-04   1.0000000000E+00
d  1 1.00
   3.0000000000E-04   1.0000000000E+00
 
 
[MO]
Ene=     1.98670E-03
Spin= Alpha
Occup=   1.0000000000
   1       0.20136513
   2       0.13465158
   3      -0.34115869
   4      -0.14625329
   5      -0.16863225
   6      -0.14573888
   7      -0.08809757
   8       0.07170376
   9       0.00496740
  10      -0.00007972
  11      -0.17193130
  12       0.00000000
  13      -0.00000000
  14       0.05327795
  15       0.00000000
  16      -0.00000000
  17      -0.09704500
  18      -0.00000000
  19       0.00000000
  20      -0.19946191
  21       0.00000000
  22      -0.00000000
  23      -0.09273666
  24      -0.01640840
  25      -0.01640840
  26       0.00000000
  27      -0.00000000
  28      -0.00000000
  29      -0.05472455
  30      -0.05626010
  31      -0.05626010
  32       0.00000000
  33      -0.00000000
  34       0.00000000
  35       0.20136513
  36       0.13465158
  37      -0.34115869
  38      -0.14625329
  39      -0.16863225
  40      -0.14573888
  41      -0.08809757
  42       0.07170376
  43       0.00496740
  44      -0.00007972
  45       0.17193130
  46      -0.00000000
  47       0.00000000
  48      -0.05327795
  49      -0.00000000
  50       0.00000000
  51       0.09704500
  52      -0.00000000
  53      -0.00000000
  54       0.19946191
  55       0.00000000
  56       0.00000000
  57      -0.09273666
  58      -0.01640840
  59      -0.01640840
  60       0.00000000
  61      -0.00000000
  62       0.00000000
  63      -0.05472455
  64      -0.05626010
  65      -0.05626010
  66       0.00000000
  67      -0.00000000
  68      -0.00000000
Ene=     2.75170E-03
Spin= Alpha
Occup=   0.0000000000
   1      -0.02120224
   2       1.27538163
   3       0.00092371
   4       0.37393251
   5       0.16889832
   6       0.19844166
   7       0.10390778
   8      -0.08738409
   9      -0.00656798
  10       0.00017017
  11       0.02713212
  12      -0.00000000
  13       0.00000000
  14       0.73656716
  15       0.00000000
  16      -0.00000000
  17      -0.12481057
  18       0.00000000
  19       0.00000000
  20       0.25952458
  21      -0.00000000
  22      -0.00000000
  23       0.02249213
  24       0.01940445
  25       0.01940445
  26      -0.00000000
  27       0.00000000
  28      -0.00000000
  29       0.25225531
  30       0.05299239
  31       0.05299239
  32       0.00000000
  33      -0.00000000
  34       0.00000000
  35       0.02120224
  36      -1.27538163
  37      -0.00092371
  38      -0.37393251
  39      -0.16889832
  40      -0.19844166
  41      -0.10390778
  42       0.08738409
  43       0.00656798
  44      -0.00017017
  45       0.02713212
  46       0.00000000
  47      -0.00000000
  48       0.73656716
  49      -0.00000000
  50       0.00000000
  51      -0.12481057
  52       0.00000000
  53       0.00000000
  54       0.25952458
  55      -0.00000000
  56      -0.00000000
  57      -0.02249213
  58      -0.01940445
  59      -0.01940445
  60      -0.00000000
  61       0.00000000
  62       0.00000000
  63      -0.25225531
  64      -0.05299239
  65      -0.05299239
  66       0.00000000
  67      -0.00000000
  68      -0.00000000
Ene=     6.14798E-03
Spin= Alpha
Occup=   0.0000000000
   1       0.59488818
   2       0.15513924
   3      -0.90933990
   4       0.66425796
   5       0.09058049
   6       0.17868874
   7       0.07057442
   8      -0.06385933
   9      -0.00560440
  10       0.00023656
  11      -0.79398133
  12       0.00000000
  13      -0.00000000
  14       0.28835353
  15      -0.00000000
  16       0.00000000
  17      -0.52349800
  18      -0.00000000
  19      -0.00000000
  20       0.16732221
  21       0.00000000
  22       0.00000000
  23      -0.39014673
  24      -0.02596166
  25      -0.02596166
  26       0.00000000
  27      -0.00000000
  28      -0.00000000
  29      -0.01819760
  30      -0.08431409
  31      -0.08431409
  32      -0.00000000
  33       0.00000000
  34       0.00000000
  35       0.59488818
  36       0.15513924
  37      -0.90933990
  38       0.66425796
  39       0.09058049
  40       0.17868874
  41       0.07057442
  42      -0.06385933
  43      -0.00560440
  44       0.00023656
  45       0.79398133
  46      -0.00000000
  47       0.00000000
  48      -0.28835353
  49       0.00000000
  50      -0.00000000
  51       0.52349800
  52      -0.00000000
  53      -0.00000000
  54      -0.16732221
  55       0.00000000
  56       0.00000000
  57      -0.39014673
  58      -0.02596166
  59      -0.02596166
  60       0.00000000
  61      -0.00000000
  62       0.00000000
  63      -0.01819760
  64      -0.08431409
  65      -0.08431409
  66      -0.00000000
  67       0.00000000
  68      -0.00000000
Ene=     1.24728E-02
Spin= Alpha
Occup=   0.0000000000
   1       0.00107816
   2       3.00478487
   3      -0.86059074
   4      -0.29108223
   5       0.60136164
   6       0.07932387
   7       0.10514032
   8      -0.07513581
   9      -0.00353651
  10      -0.00016603
  11      -0.09896752
  12      -0.00000000
  13       0.00000000
  14       1.52031856
  15       0.00000000
  16      -0.00000000
  17      -0.24984515
  18      -0.00000000
  19       0.00000000
  20      -0.43441360
  21       0.00000000
  22      -0.00000000
  23      -0.08569125
  24      -0.06704326
  25      -0.06704326
  26      -0.00000000
  27       0.00000000
  28       0.00000000
  29       0.28605894
  30      -0.12586886
  31      -0.12586886
  32       0.00000000
  33      -0.00000000
  34      -0.00000000
  35      -0.00107816
  36      -3.00478487
  37       0.86059074
  38       0.29108223
  39      -0.60136164
  40      -0.07932387
  41      -0.10514032
  42       0.07513581
  43       0.00353651
  44       0.00016603
  45      -0.09896752
  46       0.00000000
  47      -0.00000000
  48       1.52031856
  49      -0.00000000
  50       0.00000000
  51      -0.24984515
  52      -0.00000000
  53      -0.00000000
  54      -0.43441360
  55       0.00000000
  56       0.00000000
  57       0.08569125
  58       0.06704326
  59       0.06704326
  60      -0.00000000
  61       0.00000000
  62      -0.00000000
  63      -0.28605894
  64       0.12586886
  65       0.12586886
  66       0.00000000
  67      -0.00000000
  68       0.00000000
Ene=     1.38877E-02
Spin= Alpha
Occup=   0.0000000000
   1      -0.00000000
   2       0.00000000
   3      -0.00000000
   4       0.00000000
   5      -0.00000000
   6       0.00000000
   7      -0.00000000
   8       0.00000000
   9      -0.00000000
  10       0.00000000
  11       0.00000000
  12      -0.01325574
  13      -0.05400823
  14       0.00000000
  15       0.03455903
  16       0.14080483
  17      -0.00000000
  18      -0.12022708
  19      -0.48984459
  20       0.00000000
  21      -0.05875664
  22      -0.23939385
  23       0.00000000
  24       0.00000000
  25       0.00000000
  26       0.01453256
  27       0.05921042
  28      -0.00000000
  29       0.00000000
  30       0.00000000
  31       0.00000000
  32      -0.02434908
  33      -0.09920613
  34       0.00000000
  35      -0.00000000
  36      -0.00000000
  37       0.00000000
  38      -0.00000000
  39      -0.00000000
  40      -0.00000000
  41       0.00000000
  42       0.00000000
  43       0.00000000
  44      -0.00000000
  45      -0.00000000
  46      -0.01325574
  47      -0.05400823
  48       0.00000000
  49       0.03455903
  50       0.14080483
  51      -0.00000000
  52      -0.12022708
  53      -0.48984459
  54      -0.00000000
  55      -0.05875664
  56      -0.23939385
  57       0.00000000
  58      -0.00000000
  59      -0.00000000
  60      -0.01453256
  61      -0.05921042
  62      -0.00000000
  63      -0.00000000
  64      -0.00000000
  65      -0.00000000
  66       0.02434908
  67       0.09920613
  68       0.00000000
Ene=     1.38877E-02
Spin= Alpha
Occup=   0.0000000000
   1      -0.00000000
   2       0.00000000
   3       0.00000000
   4      -0.00000000
   5       0.00000000
   6      -0.00000000
   7       0.00000000
   8      -0.00000000
   9      -0.00000000
  10       0.00000000
  11       0.00000000
  12      -0.05400823
  13       0.01325574
  14       0.00000000
  15       0.14080483
  16      -0.03455903
  17       0.00000000
  18      -0.48984459
  19       0.12022708
  20      -0.00000000
  21      -0.23939385
  22       0.05875664
  23       0.00000000
  24       0.00000000
  25       0.00000000
  26       0.05921042
  27      -0.01453256
  28       0.00000000
  29       0.00000000
  30       0.00000000
  31       0.00000000
  32      -0.09920613
  33       0.02434908
  34       0.00000000
  35      -0.00000000
  36      -0.00000000
  37      -0.00000000
  38      -0.00000000
  39       0.00000000
  40      -0.00000000
  41       0.00000000
  42      -0.00000000
  43      -0.00000000
  44       0.00000000
  45      -0.00000000
  46      -0.05400823
  47       0.01325574
  48       0.00000000
  49       0.14080483
  50      -0.03455903
  51      -0.00000000
  52      -0.48984459
  53       0.12022708
  54       0.00000000
  55      -0.23939385
  56       0.05875664
  57       0.00000000
  58      -0.00000000
  59      -0.00000000
  60      -0.05921042
  61       0.01453256
  62       0.00000000
  63      -0.00000000
  64      -0.00000000
  65      -0.00000000
  66       0.09920613
  67      -0.02434908
  68      -0.00000000
Ene=     1.43445E-02
Spin= Alpha
Occup=   0.0000000000
   1       0.28896071
   2       0.37115923
   3       0.17375009
   4      -1.26931913
   5       0.84358000
   6      -0.02167212
   7       0.11008248
   8      -0.06777207
   9      -0.00107794
  10      -0.00045262
  11       0.51412080
  12       0.00000000
  13       0.00000000
  14      -0.11015122
  15      -0.00000000
  16       0.00000000
  17       0.58814333
  18       0.00000000
  19      -0.00000000
  20      -0.81043070
  21       0.00000000
  22      -0.00000000
  23       0.15058657
  24      -0.08070550
  25      -0.08070550
  26       0.00000000
  27       0.00000000
  28      -0.00000000
  29      -0.21715099
  30      -0.25935391
  31      -0.25935391
  32      -0.00000000
  33       0.00000000
  34       0.00000000
  35       0.28896071
  36       0.37115923
  37       0.17375009
  38      -1.26931913
  39       0.84358000
  40      -0.02167212
  41       0.11008248
  42      -0.06777207
  43      -0.00107794
  44      -0.00045262
  45      -0.51412080
  46      -0.00000000
  47      -0.00000000
  48       0.11015122
  49       0.00000000
  50      -0.00000000
  51      -0.58814333
  52      -0.00000000
  53      -0.00000000
  54       0.81043070
  55       0.00000000
  56      -0.00000000
  57       0.15058657
  58      -0.08070550
  59      -0.08070550
  60       0.00000000
  61       0.00000000
  62       0.00000000
  63      -0.21715099
  64      -0.25935391
  65      -0.25935391
  66      -0.00000000
  67       0.00000000
  68      -0.00000000
Ene=     1.62517E-02
Spin= Alpha
Occup=   0.0000000000
   1      -0.00000000
   2       0.00000000
   3       0.00000000
   4      -0.00000000
   5       0.00000000
   6      -0.00000000
   7      -0.00000000
   8       0.00000000
   9      -0.00000000
  10       0.00000000
  11       0.00000000
  12       0.00227910
  13      -0.01801184
  14       0.00000000
  15       0.00608277
  16      -0.04807253
  17      -0.00000000
  18       0.00488049
  19      -0.03857077
  20       0.00000000
  21       0.08697242
  22      -0.68734830
  23       0.00000000
  24       0.00000000
  25       0.00000000
  26      -0.00030829
  27       0.00243645
  28      -0.00000000
  29       0.00000000
  30       0.00000000
  31       0.00000000
  32       0.00534836
  33      -0.04226840
  34       0.00000000
  35       0.00000000
  36      -0.00000000
  37       0.00000000
  38      -0.00000000
  39       0.00000000
  40       0.00000000
  41      -0.00000000
  42      -0.00000000
  43       0.00000000
  44      -0.00000000
  45       0.00000000
  46      -0.00227910
  47       0.01801184
  48       0.00000000
  49      -0.00608277
  50       0.04807253
  51      -0.00000000
  52      -0.00488049
  53       0.03857077
  54       0.00000000
  55      -0.08697242
  56       0.68734830
  57      -0.00000000
  58      -0.00000000
  59      -0.00000000
  60      -0.00030829
  61       0.00243645
  62       0.00000000
  63      -0.00000000
  64      -0.00000000
  65      -0.00000000
  66       0.00534836
  67      -0.04226840
  68      -0.00000000
Ene=     1.62517E-02
Spin= Alpha
Occup=   0.0000000000
   1      -0.00000000
   2       0.00000000
   3      -0.00000000
   4       0.00000000
   5      -0.00000000
   6       0.00000000
   7      -0.00000000
   8       0.00000000
   9       0.00000000
  10       0.00000000
  11       0.00000000
  12       0.01801184
  13       0.00227910
  14       0.00000000
  15       0.04807253
  16       0.00608277
  17      -0.00000000
  18       0.03857077
  19       0.00488049
  20       0.00000000
  21       0.68734830
  22       0.08697242
  23       0.00000000
  24       0.00000000
  25       0.00000000
  26      -0.00243645
  27      -0.00030829
  28       0.00000000
  29       0.00000000
  30       0.00000000
  31       0.00000000
  32       0.04226840
  33       0.00534836
  34       0.00000000
  35      -0.00000000
  36      -0.00000000
  37       0.00000000
  38      -0.00000000
  39       0.00000000
  40      -0.00000000
  41       0.00000000
  42      -0.00000000
  43      -0.00000000
  44      -0.00000000
  45      -0.00000000
  46      -0.01801184
  47      -0.00227910
  48       0.00000000
  49      -0.04807253
  50      -0.00608277
  51      -0.00000000
  52      -0.03857077
  53      -0.00488049
  54       0.00000000
  55      -0.68734830
  56      -0.08697242
  57       0.00000000
  58      -0.00000000
  59      -0.00000000
  60      -0.00243645
  61      -0.00030829
  62      -0.00000000
  63      -0.00000000
  64      -0.00000000
  65      -0.00000000
  66       0.04226840
  67       0.00534836
  68      -0.00000000
Ene=     1.90872E-02
Spin= Alpha
Occup=   0.0000000000
   1      -0.11313307
   2      12.59020127
   3      -2.62163733
   4       1.70948448
   5      -0.60633756
   6       0.06133437
   7      -0.05588420
   8       0.02943277
   9      -0.00059135
  10       0.00034833
  11      -0.04419926
  12      -0.00000000
  13       0.00000000
  14       6.87226558
  15       0.00000000
  16      -0.00000000
  17      -1.61168914
  18      -0.00000000
  19       0.00000000
  20       0.68486450
  21       0.00000000
  22      -0.00000000
  23      -0.02716957
  24      -0.03144677
  25      -0.03144677
  26      -0.00000000
  27       0.00000000
  28       0.00000000
  29       1.88286988
  30       0.06586348
  31       0.06586348
  32       0.00000000
  33      -0.00000000
  34      -0.00000000
  35       0.11313307
  36     -12.59020127
  37       2.62163733
  38      -1.70948448
  39       0.60633756
  40      -0.06133437
  41       0.05588420
  42      -0.02943277
  43       0.00059135
  44      -0.00034833
  45      -0.04419926
  46       0.00000000
  47      -0.00000000
  48       6.87226558
  49      -0.00000000
  50       0.00000000
  51      -1.61168914
  52       0.00000000
  53       0.00000000
  54       0.68486450
  55       0.00000000
  56      -0.00000000
  57       0.02716957
  58       0.03144677
  59       0.03144677
  60      -0.00000000
  61       0.00000000
  62      -0.00000000
  63      -1.88286988
  64      -0.06586348
  65      -0.06586348
  66       0.00000000
  67      -0.00000000
  68       0.00000000
Ene=     2.00842E-02
Spin= Alpha
Occup=   0.0000000000
   1      -0.00000000
   2      -0.00000000
   3      -0.00000000
   4       0.00000000
   5      -0.00000000
   6       0.00000000
   7      -0.00000000
   8       0.00000000
   9      -0.00000000
  10       0.00000000
  11       0.00000000
  12       0.06046111
  13      -0.04221601
  14      -0.00000000
  15      -0.16757039
  16       0.11700337
  17      -0.00000000
  18       0.72867418
  19      -0.50878519
  20       0.00000000
  21      -0.81121267
  22       0.56641639
  23       0.00000000
  24      -0.00000000
  25      -0.00000000
  26      -0.05985706
  27       0.04179425
  28       0.00000000
  29      -0.00000000
  30      -0.00000000
  31      -0.00000000
  32       0.10344482
  33      -0.07222870
  34      -0.00000000
  35      -0.00000000
  36       0.00000000
  37       0.00000000
  38      -0.00000000
  39       0.00000000
  40      -0.00000000
  41       0.00000000
  42      -0.00000000
  43      -0.00000000
  44       0.00000000
  45      -0.00000000
  46       0.06046111
  47      -0.04221601
  48      -0.00000000
  49      -0.16757039
  50       0.11700337
  51      -0.00000000
  52       0.72867418
  53      -0.50878519
  54       0.00000000
  55      -0.81121267
  56       0.56641639
  57       0.00000000
  58       0.00000000
  59       0.00000000
  60       0.05985706
  61      -0.04179425
  62      -0.00000000
  63       0.00000000
  64       0.00000000
  65       0.00000000
  66      -0.10344482
  67       0.07222870
  68       0.00000000
Ene=     2.00842E-02
Spin= Alpha
Occup=   0.0000000000
   1       0.00000000
   2      -0.00000000
   3      -0.00000000
   4       0.00000000
   5      -0.00000000
   6       0.00000000
   7      -0.00000000
   8       0.00000000
   9      -0.00000000
  10       0.00000000
  11      -0.00000000
  12      -0.04221601
  13      -0.06046111
  14      -0.00000000
  15       0.11700337
  16       0.16757039
  17      -0.00000000
  18      -0.50878519
  19      -0.72867418
  20       0.00000000
  21       0.56641639
  22       0.81121267
  23      -0.00000000
  24      -0.00000000
  25      -0.00000000
  26       0.04179425
  27       0.05985706
  28       0.00000000
  29      -0.00000000
  30      -0.00000000
  31      -0.00000000
  32      -0.07222870
  33      -0.10344482
  34      -0.00000000
  35      -0.00000000
  36       0.00000000
  37       0.00000000
  38      -0.00000000
  39       0.00000000
  40      -0.00000000
  41       0.00000000
  42      -0.00000000
  43      -0.00000000
  44       0.00000000
  45      -0.00000000
  46      -0.04221601
  47      -0.06046111
  48      -0.00000000
  49       0.11700337
  50       0.16757039
  51      -0.00000000
  52      -0.50878519
  53      -0.72867418
  54       0.00000000
  55       0.56641639
  56       0.81121267
  57       0.00000000
  58       0.00000000
  59       0.00000000
  60      -0.04179425
  61      -0.05985706
  62      -0.00000000
  63       0.00000000
  64       0.00000000
  65       0.00000000
  66       0.07222870
  67       0.10344482
  68      -0.00000000
Ene=     2.42234E-02
Spin= Alpha
Occup=   0.0000000000
   1      -0.48681091
   2      -0.06313334
   3       0.13871329
   4      -0.92607708
   5       0.62975494
   6       0.02127902
   7       0.06694044
   8      -0.04455036
   9      -0.00156049
  10      -0.00018106
  11       0.55271114
  12      -0.00000000
  13       0.00000000
  14      -0.17775656
  15      -0.00000000
  16       0.00000000
  17       0.22652652
  18       0.00000000
  19       0.00000000
  20       0.29001627
  21      -0.00000000
  22      -0.00000000
  23       0.28515724
  24       0.02970682
  25       0.02970682
  26      -0.00000000
  27       0.00000000
  28      -0.00000000
  29       0.03321801
  30       0.07471806
  31       0.07471806
  32      -0.00000000
  33       0.00000000
  34      -0.00000000
  35      -0.48681091
  36      -0.06313334
  37       0.13871329
  38      -0.92607708
  39       0.62975494
  40       0.02127902
  41       0.06694044
  42      -0.04455036
  43      -0.00156049
  44      -0.00018106
  45      -0.55271114
  46       0.00000000
  47      -0.00000000
  48       0.17775656
  49       0.00000000
  50      -0.00000000
  51      -0.22652652
  52      -0.00000000
  53      -0.00000000
  54      -0.29001627
  55       0.00000000
  56       0.00000000
  57       0.28515724
  58       0.02970682
  59       0.02970682
  60      -0.00000000
  61       0.00000000
  62       0.00000000
  63       0.03321801
  64       0.07471806
  65       0.07471806
  66      -0.00000000
  67       0.00000000
  68       0.00000000
Ene=     2.59378E-02
Spin= Alpha
Occup=   0.0000000000
   1      -0.00000000
   2       0.00000000
   3      -0.00000000
   4       0.00000000
   5      -0.00000000
   6      -0.00000000
   7      -0.00000000
   8       0.00000000
   9       0.00000000
  10       0.00000000
  11       0.00000000
  12      -2.28463810
  13       0.24536155
  14       0.00000000
  15       0.62208248
  16      -0.06680932
  17      -0.00000000
  18      -1.45717801
  19       0.15649545
  20      -0.00000000
  21       0.82720368
  22      -0.08883857
  23       0.00000000
  24       0.00000000
  25       0.00000000
  26      -0.56715799
  27       0.06091064
  28       0.00000000
  29       0.00000000
  30       0.00000000
  31       0.00000000
  32       0.04325479
  33      -0.00464540
  34      -0.00000000
  35       0.00000000
  36      -0.00000000
  37       0.00000000
  38      -0.00000000
  39       0.00000000
  40       0.00000000
  41       0.00000000
  42      -0.00000000
  43      -0.00000000
  44      -0.00000000
  45      -0.00000000
  46       2.28463810
  47      -0.24536155
  48       0.00000000
  49      -0.62208248
  50       0.06680932
  51      -0.00000000
  52       1.45717801
  53      -0.15649545
  54      -0.00000000
  55      -0.82720368
  56       0.08883857
  57       0.00000000
  58      -0.00000000
  59      -0.00000000
  60      -0.56715799
  61       0.06091064
  62      -0.00000000
  63      -0.00000000
  64      -0.00000000
  65      -0.00000000
  66       0.04325479
  67      -0.00464540
  68       0.00000000
Ene=     2.59378E-02
Spin= Alpha
Occup=   0.0000000000
   1       0.00000000
   2      -0.00000000
   3       0.00000000
   4      -0.00000000
   5       0.00000000
   6       0.00000000
   7       0.00000000
   8      -0.00000000
   9       0.00000000
  10      -0.00000000
  11      -0.00000000
  12      -0.24536155
  13      -2.28463810
  14      -0.00000000
  15       0.06680932
  16       0.62208248
  17       0.00000000
  18      -0.15649545
  19      -1.45717801
  20       0.00000000
  21       0.08883857
  22       0.82720368
  23      -0.00000000
  24      -0.00000000
  25      -0.00000000
  26      -0.06091064
  27      -0.56715799
  28       0.00000000
  29      -0.00000000
  30      -0.00000000
  31      -0.00000000
  32       0.00464540
  33       0.04325479
  34      -0.00000000
  35      -0.00000000
  36       0.00000000
  37      -0.00000000
  38       0.00000000
  39      -0.00000000
  40      -0.00000000
  41      -0.00000000
  42       0.00000000
  43       0.00000000
  44       0.00000000
  45       0.00000000
  46       0.24536155
  47       2.28463810
  48      -0.00000000
  49      -0.06680932
  50      -0.62208248
  51       0.00000000
  52       0.15649545
  53       1.45717801
  54       0.00000000
  55      -0.08883857
  56      -0.82720368
  57      -0.00000000
  58       0.00000000
  59       0.00000000
  60      -0.06091064
  61      -0.56715799
  62      -0.00000000
  63       0.00000000
  64       0.00000000
  65       0.00000000
  66       0.00464540
  67       0.04325479
  68      -0.00000000
Ene=     2.59868E-02
Spin= Alpha
Occup=   0.0000000000
   1       0.02678914
   2      -3.07634694
   3       1.17902590
   4      -1.58884497
   5       0.80263588
   6       0.00553543
   7       0.07643132
   8      -0.04900981
   9      -0.00135849
  10      -0.00025083
  11       0.01758370
  12      -0.00000000
  13      -0.00000000
  14      -1.72171253
  15       0.00000000
  16      -0.00000000
  17       0.73624382
  18      -0.00000000
  19       0.00000000
  20       0.29881744
  21       0.00000000
  22      -0.00000000
  23       0.00117950
  24       0.02043979
  25       0.02043979
  26      -0.00000000
  27      -0.00000000
  28      -0.00000000
  29      -0.46011100
  30      -0.03787160
  31      -0.03787160
  32       0.00000000
  33      -0.00000000
  34       0.00000000
  35      -0.02678914
  36       3.07634694
  37      -1.17902590
  38       1.58884497
  39      -0.80263588
  40      -0.00553543
  41      -0.07643132
  42       0.04900981
  43       0.00135849
  44       0.00025083
  45       0.01758370
  46       0.00000000
  47       0.00000000
  48      -1.72171253
  49      -0.00000000
  50       0.00000000
  51       0.73624382
  52       0.00000000
  53      -0.00000000
  54       0.29881744
  55      -0.00000000
  56       0.00000000
  57      -0.00117950
  58      -0.02043979
  59      -0.02043979
  60      -0.00000000
  61      -0.00000000
  62       0.00000000
  63       0.46011100
  64       0.03787160
  65       0.03787160
  66       0.00000000
  67      -0.00000000
  68       0.00000000
Ene=     3.11449E-02
Spin= Alpha
Occup=   0.0000000000
   1       5.52036738
   2       2.17164371
   3      -4.12343502
   4       1.59691261
   5      -0.40609224
   6      -0.04568311
   7      -0.02473632
   8       0.02046738
   9       0.00157836
  10      -0.00003706
  11      -3.53406782
  12       0.00000000
  13      -0.00000000
  14       1.60176008
  15      -0.00000000
  16       0.00000000
  17      -0.88587076
  18       0.00000000
  19      -0.00000000
  20       0.56921363
  21       0.00000000
  22       0.00000000
  23      -2.24884892
  24      -0.53977231
  25      -0.53977231
  26       0.00000000
  27      -0.00000000
  28      -0.00000000
  29      -0.79479173
  30      -1.61257050
  31      -1.61257050
  32      -0.00000000
  33       0.00000000
  34       0.00000000
  35       5.52036738
  36       2.17164371
  37      -4.12343502
  38       1.59691261
  39      -0.40609224
  40      -0.04568311
  41      -0.02473632
  42       0.02046738
  43       0.00157836
  44      -0.00003706
  45       3.53406782
  46      -0.00000000
  47       0.00000000
  48      -1.60176008
  49       0.00000000
  50      -0.00000000
  51       0.88587076
  52      -0.00000000
  53       0.00000000
  54      -0.56921363
  55      -0.00000000
  56      -0.00000000
  57      -2.24884892
  58      -0.53977231
  59      -0.53977231
  60       0.00000000
  61      -0.00000000
  62       0.00000000
  63      -0.79479173
  64      -1.61257050
  65      -1.61257050
  66      -0.00000000
  67       0.00000000
  68      -0.00000000
Ene=     3.22234E-02
Spin= Alpha
Occup=   0.0000000000
   1      -0.88463586
   2      -1.24957544
   3       2.65496146
   4      -1.88987199
   5       0.68793157
   6       0.01268430
   7       0.05166419
   8      -0.03394440
   9      -0.00114511
  10      -0.00014730
  11      -0.58699638
  12       0.00000000
  13       0.00000000
  14       0.04495283
  15      -0.00000000
  16      -0.00000000
  17      -0.76491384
  18       0.00000000
  19      -0.00000000
  20       0.55031554
  21      -0.00000000
  22       0.00000000
  23      -0.08505407
  24       0.17586653
  25       0.17586653
  26       0.00000000
  27       0.00000000
  28       0.00000000
  29       0.48763901
  30       0.60187425
  31       0.60187425
  32      -0.00000000
  33      -0.00000000
  34      -0.00000000
  35      -0.88463586
  36      -1.24957544
  37       2.65496146
  38      -1.88987199
  39       0.68793157
  40       0.01268430
  41       0.05166419
  42      -0.03394440
  43      -0.00114511
  44      -0.00014730
  45       0.58699638
  46      -0.00000000
  47      -0.00000000
  48      -0.04495283
  49       0.00000000
  50       0.00000000
  51       0.76491384
  52      -0.00000000
  53      -0.00000000
  54      -0.55031554
  55       0.00000000
  56      -0.00000000
  57      -0.08505407
  58       0.17586653
  59       0.17586653
  60       0.00000000
  61       0.00000000
  62      -0.00000000
  63       0.48763901
  64       0.60187425
  65       0.60187425
  66      -0.00000000
  67      -0.00000000
  68       0.00000000
Ene=     3.30991E-02
Spin= Alpha
Occup=   0.0000000000
   1       0.13698496
   2     -10.97427801
   3      -0.46638569
   4       0.91835011
   5      -0.40993222
   6       0.01671650
   7      -0.03255463
   8       0.01882903
   9       0.00010309
  10       0.00015704
  11      -0.08844202
  12       0.00000000