[Molden Format]
[Atoms] AU
E+       1       4     0.00000000     0.00000000     0.00000000
E+       2       4    60.00000000     0.00000000     0.00000000
[GTO]
  1 0
s  1 1.00
   1.0000000000E-04   1.0000000000E+00
s  1 1.00
   3.0000000000E-04   1.0000000000E+00
s  1 1.00
   9.0000000000E-04   1.0000000000E+00
s  1 1.00
   2.7000000000E-03   1.0000000000E+00
s  1 1.00
   8.1000000000E-03   1.0000000000E+00
s  1 1.00
   2.4300000000E-02   1.0000000000E+00
s  1 1.00
   7.2900000000E-02   1.0000000000E+00
s  1 1.00
   2.1870000000E-01   1.0000000000E+00
s  1 1.00
   6.5610000000E-01   1.0000000000E+00
s  1 1.00
   1.9683000000E+00   1.0000000000E+00
p  1 1.00
   1.0000000000E-04   1.0000000000E+00
p  1 1.00
   3.0000000000E-04   1.0000000000E+00
p  1 1.00
   9.0000000000E-04   1.0000000000E+00
p  1 1.00
   2.7000000000E-03   1.0000000000E+00
d  1 1.00
   1.0000000000E-04   1.0000000000E+00
d  1 1.00
   3.0000000000E-04   1.0000000000E+00
 
  2 0
s  1 1.00
   1.0000000000E-04   1.0000000000E+00
s  1 1.00
   3.0000000000E-04   1.0000000000E+00
s  1 1.00
   9.0000000000E-04   1.0000000000E+00
s  1 1.00
   2.7000000000E-03   1.0000000000E+00
s  1 1.00
   8.1000000000E-03   1.0000000000E+00
s  1 1.00
   2.4300000000E-02   1.0000000000E+00
s  1 1.00
   7.2900000000E-02   1.0000000000E+00
s  1 1.00
   2.1870000000E-01   1.0000000000E+00
s  1 1.00
   6.5610000000E-01   1.0000000000E+00
s  1 1.00
   1.9683000000E+00   1.0000000000E+00
p  1 1.00
   1.0000000000E-04   1.0000000000E+00
p  1 1.00
   3.0000000000E-04   1.0000000000E+00
p  1 1.00
   9.0000000000E-04   1.0000000000E+00
p  1 1.00
   2.7000000000E-03   1.0000000000E+00
d  1 1.00
   1.0000000000E-04   1.0000000000E+00
d  1 1.00
   3.0000000000E-04   1.0000000000E+00
 
 
[MO]
Ene=    -1.07290E-02
Spin= Alpha
Occup=   1.0000000000
   1      -0.20131975
   2       3.68221822
   3      -0.16394994
   4       0.07710006
   5      -0.01823824
   6       0.00550693
   7      -0.00155612
   8       0.00039883
   9      -0.00012995
  10       0.00002232
  11       0.38403415
  12      -0.00000000
  13       0.00000000
  14       2.25263019
  15       0.00000000
  16      -0.00000000
  17      -0.23496639
  18      -0.00000000
  19       0.00000000
  20       0.02624958
  21       0.00000000
  22      -0.00000000
  23       0.21344876
  24       0.03464296
  25       0.03464296
  26      -0.00000000
  27       0.00000000
  28       0.00000000
  29       0.77141145
  30       0.11096273
  31       0.11096273
  32       0.00000000
  33      -0.00000000
  34      -0.00000000
  35      -0.09832812
  36      -3.29343378
  37       0.04705799
  38      -0.68077649
  39      -0.03592684
  40      -0.23375116
  41      -0.01548809
  42       0.07086923
  43       0.00038090
  44       0.00062954
  45      -0.24025861
  46       0.00000000
  47      -0.00000000
  48       2.59841658
  49      -0.00000000
  50       0.00000000
  51      -0.72631975
  52       0.00000000
  53      -0.00000000
  54       0.95577589
  55      -0.00000000
  56       0.00000000
  57       0.11802043
  58      -0.04731611
  59      -0.04731611
  60      -0.00000000
  61       0.00000000
  62      -0.00000000
  63      -1.01042804
  64      -0.17571162
  65      -0.17571162
  66       0.00000000
  67      -0.00000000
  68       0.00000000
Ene=     2.59363E-03
Spin= Alpha
Occup=   0.0000000000
   1       0.62784277
   2      -0.64774280
   3      -0.91780872
   4       0.23958346
   5      -0.15136623
   6      -0.05475316
   7      -0.05611881
   8       0.04169268
   9       0.00215564
  10       0.00005743
  11      -0.73619885
  12      -0.00000000
  13       0.00000000
  14      -0.32312562
  15       0.00000000
  16      -0.00000000
  17      -0.41061891
  18      -0.00000000
  19       0.00000000
  20      -0.11118132
  21       0.00000000
  22      -0.00000000
  23      -0.41186043
  24      -0.04789848
  25      -0.04789848
  26      -0.00000000
  27      -0.00000000
  28       0.00000000
  29      -0.30070092
  30      -0.15326251
  31      -0.15326251
  32       0.00000000
  33      -0.00000000
  34      -0.00000000
  35       0.59116530
  36       1.06875077
  37      -0.83232261
  38       0.59164267
  39      -0.09003809
  40       0.09062923
  41      -0.00827771
  42      -0.01335948
  43      -0.00092761
  44       0.00000550
  45       0.66892694
  46       0.00000000
  47       0.00000000
  48      -0.91879950
  49      -0.00000000
  50       0.00000000
  51       0.66089018
  52       0.00000000
  53       0.00000000
  54      -0.30486474
  55       0.00000000
  56      -0.00000000
  57      -0.36307521
  58      -0.00885400
  59      -0.00885400
  60      -0.00000000
  61       0.00000000
  62      -0.00000000
  63       0.19806787
  64      -0.03699933
  65      -0.03699933
  66       0.00000000
  67      -0.00000000
  68       0.00000000
Ene=     6.00474E-03
Spin= Alpha
Occup=   0.0000000000
   1       0.36328092
   2      -0.20959763
   3      -0.52265475
   4       0.94025648
   5       0.03210290
   6       0.29119102
   7       0.11275965
   8      -0.10294277
   9      -0.00911066
  10       0.00039820
  11      -0.55058016
  12      -0.00000000
  13      -0.00000000
  14       0.09772418
  15       0.00000000
  16      -0.00000000
  17      -0.49117264
  18      -0.00000000
  19       0.00000000
  20       0.50695202
  21       0.00000000
  22      -0.00000000
  23      -0.28345492
  24       0.00317844
  25       0.00317844
  26      -0.00000000
  27      -0.00000000
  28       0.00000000
  29      -0.00627907
  30       0.00132333
  31       0.00132333
  32       0.00000000
  33      -0.00000000
  34       0.00000000
  35       0.36917466
  36       0.28264933
  37      -0.60015525
  38       0.43082871
  39      -0.03868744
  40       0.06472427
  41      -0.00368483
  42      -0.01227075
  43      -0.00051802
  44      -0.00004025
  45       0.57658089
  46       0.00000000
  47       0.00000000
  48      -0.38671839
  49      -0.00000000
  50       0.00000000
  51       0.48125869
  52       0.00000000
  53       0.00000000
  54      -0.23246832
  55      -0.00000000
  56      -0.00000000
  57      -0.30675012
  58      -0.01291179
  59      -0.01291179
  60      -0.00000000
  61      -0.00000000
  62      -0.00000000
  63       0.05643938
  64      -0.03051748
  65      -0.03051748
  66       0.00000000
  67      -0.00000000
  68      -0.00000000
Ene=     1.38604E-02
Spin= Alpha
Occup=   0.0000000000
   1      -0.14739417
   2      -3.52554289
   3       0.95288328
   4       0.46645855
   5      -0.85885799
   6      -0.09828929
   7      -0.15858979
   8       0.11131311
   9       0.00479828
  10       0.00030597
  11      -0.12218820
  12      -0.00000000
  13       0.00000000
  14      -1.99945268
  15       0.00000000
  16      -0.00000000
  17       0.16986831
  18      -0.00000000
  19       0.00000000
  20       0.60090777
  21       0.00000000
  22      -0.00000000
  23       0.01315442
  24       0.10921426
  25       0.10921426
  26      -0.00000000
  27       0.00000000
  28      -0.00000000
  29      -0.41836878
  30       0.22774492
  31       0.22774492
  32       0.00000000
  33      -0.00000000
  34       0.00000000
  35      -0.12147371
  36       3.12009862
  37      -0.91565703
  38       0.48357035
  39       0.04126830
  40       0.05637276
  41       0.00220375
  42      -0.01775424
  43      -0.00010307
  44      -0.00014496
  45       0.33653292
  46       0.00000000
  47      -0.00000000
  48      -2.15264718
  49      -0.00000000
  50       0.00000000
  51       0.74004062
  52       0.00000000
  53      -0.00000000
  54      -0.23617339
  55      -0.00000000
  56      -0.00000000
  57      -0.16828240
  58      -0.03166884
  59      -0.03166884
  60      -0.00000000
  61       0.00000000
  62       0.00000000
  63       0.64773978
  64       0.02901430
  65       0.02901430
  66       0.00000000
  67      -0.00000000
  68      -0.00000000
Ene=     1.65553E-02
Spin= Alpha
Occup=   0.0000000000
   1       0.00000000
   2       0.00000000
   3       0.00000000
   4      -0.00000000
   5       0.00000000
   6      -0.00000000
   7       0.00000000
   8      -0.00000000
   9       0.00000000
  10      -0.00000000
  11      -0.00000000
  12       0.06539662
  13       0.15825199
  14       0.00000000
  15      -0.07437643
  16      -0.17998204
  17       0.00000000
  18       0.27055694
  19       0.65471538
  20      -0.00000000
  21       0.08337370
  22       0.20175436
  23      -0.00000000
  24       0.00000000
  25       0.00000000
  26      -0.02677584
  27      -0.06479432
  28       0.00000000
  29       0.00000000
  30      -0.00000000
  31      -0.00000000
  32       0.05868862
  33       0.14201944
  34       0.00000000
  35       0.00000000
  36      -0.00000000
  37      -0.00000000
  38       0.00000000
  39      -0.00000000
  40       0.00000000
  41      -0.00000000
  42       0.00000000
  43      -0.00000000
  44       0.00000000
  45       0.00000000
  46      -0.01274753
  47      -0.03084749
  48       0.00000000
  49      -0.05185270
  50      -0.12547732
  51       0.00000000
  52       0.20047676
  53       0.48512975
  54      -0.00000000
  55      -0.01346391
  56      -0.03258105
  57      -0.00000000
  58      -0.00000000
  59      -0.00000000
  60       0.04693050
  61       0.11356620
  62      -0.00000000
  63      -0.00000000
  64      -0.00000000
  65      -0.00000000
  66      -0.05377210
  67      -0.13012204
  68       0.00000000
Ene=     1.65553E-02
Spin= Alpha
Occup=   0.0000000000
   1      -0.00000000
   2      -0.00000000
   3       0.00000000
   4       0.00000000
   5      -0.00000000
   6      -0.00000000
   7      -0.00000000
   8       0.00000000
   9       0.00000000
  10      -0.00000000
  11      -0.00000000
  12       0.15825199
  13      -0.06539662
  14      -0.00000000
  15      -0.17998204
  16       0.07437643
  17      -0.00000000
  18       0.65471538
  19      -0.27055694
  20       0.00000000
  21       0.20175436
  22      -0.08337370
  23      -0.00000000
  24      -0.00000000
  25      -0.00000000
  26      -0.06479432
  27       0.02677584
  28       0.00000000
  29      -0.00000000
  30       0.00000000
  31       0.00000000
  32       0.14201944
  33      -0.05868862
  34      -0.00000000
  35      -0.00000000
  36       0.00000000
  37       0.00000000
  38      -0.00000000
  39      -0.00000000
  40       0.00000000
  41      -0.00000000
  42       0.00000000
  43      -0.00000000
  44       0.00000000
  45       0.00000000
  46      -0.03084749
  47       0.01274753
  48      -0.00000000
  49      -0.12547732
  50       0.05185270
  51      -0.00000000
  52       0.48512975
  53      -0.20047676
  54       0.00000000
  55      -0.03258105
  56       0.01346391
  57      -0.00000000
  58       0.00000000
  59       0.00000000
  60       0.11356620
  61      -0.04693050
  62      -0.00000000
  63       0.00000000
  64       0.00000000
  65       0.00000000
  66      -0.13012204
  67       0.05377210
  68       0.00000000
Ene=     1.87713E-02
Spin= Alpha
Occup=   0.0000000000
   1      -0.70753788
   2       6.45272639
   3      -1.77064210
   4       1.88824244
   5      -0.87688377
   6       0.06475916
   7      -0.09732239
   8       0.05548046
   9      -0.00007556
  10       0.00050718
  11       0.15751590
  12       0.00000000
  13      -0.00000000
  14       4.28685251
  15      -0.00000000
  16       0.00000000
  17      -1.48245069
  18       0.00000000
  19      -0.00000000
  20       0.88777472
  21      -0.00000000
  22      -0.00000000
  23       0.15549618
  24       0.01596998
  25       0.01596998
  26       0.00000000
  27      -0.00000000
  28       0.00000000
  29       1.45798647
  30       0.26178658
  31       0.26178658
  32      -0.00000000
  33       0.00000000
  34      -0.00000000
  35      -0.65376924
  36      -7.01746049
  37       2.18187325
  38      -0.75612761
  39      -0.07047423
  40      -0.06378068
  41      -0.00306970
  42       0.02162309
  43       0.00005237
  44       0.00018407
  45      -0.30466916
  46      -0.00000000
  47       0.00000000
  48       4.57287214
  49       0.00000000
  50      -0.00000000
  51      -1.23516663
  52      -0.00000000
  53       0.00000000
  54       0.22389471
  55       0.00000000
  56       0.00000000
  57       0.26568073
  58       0.13879929
  59       0.13879929
  60       0.00000000
  61      -0.00000000
  62       0.00000000
  63      -1.19851700
  64       0.22092636
  65       0.22092636
  66      -0.00000000
  67       0.00000000
  68      -0.00000000
Ene=     1.99930E-02
Spin= Alpha
Occup=   0.0000000000
   1       0.00000000
   2       0.00000000
   3       0.00000000
   4      -0.00000000
   5       0.00000000
   6      -0.00000000
   7       0.00000000
   8      -0.00000000
   9      -0.00000000
  10       0.00000000
  11       0.00000000
  12      -0.00475863
  13      -0.04361276
  14       0.00000000
  15      -0.01238838
  16      -0.11353934
  17       0.00000000
  18       0.03574277
  19       0.32758199
  20      -0.00000000
  21      -0.09845939
  22      -0.90237905
  23      -0.00000000
  24       0.00000000
  25       0.00000000
  26      -0.00789549
  27      -0.07236204
  28      -0.00000000
  29       0.00000000
  30       0.00000000
  31       0.00000000
  32       0.00458310
  33       0.04200401
  34       0.00000000
  35       0.00000000
  36      -0.00000000
  37      -0.00000000
  38       0.00000000
  39      -0.00000000
  40       0.00000000
  41      -0.00000000
  42      -0.00000000
  43      -0.00000000
  44       0.00000000
  45       0.00000000
  46       0.01383594
  47       0.12680619
  48       0.00000000
  49      -0.00927523
  50      -0.08500738
  51       0.00000000
  52       0.05352598
  53       0.49056496
  54      -0.00000000
  55       0.03131832
  56       0.28703202
  57      -0.00000000
  58      -0.00000000
  59      -0.00000000
  60       0.00512118
  61       0.04693558
  62       0.00000000
  63      -0.00000000
  64      -0.00000000
  65      -0.00000000
  66      -0.01503031
  67      -0.13775259
  68      -0.00000000
Ene=     1.99930E-02
Spin= Alpha
Occup=   0.0000000000
   1       0.00000000
   2       0.00000000
   3       0.00000000
   4      -0.00000000
   5       0.00000000
   6      -0.00000000
   7       0.00000000
   8      -0.00000000
   9      -0.00000000
  10       0.00000000
  11      -0.00000000
  12      -0.04361276
  13       0.00475863
  14       0.00000000
  15      -0.11353934
  16       0.01238838
  17       0.00000000
  18       0.32758199
  19      -0.03574277
  20      -0.00000000
  21      -0.90237905
  22       0.09845939
  23      -0.00000000
  24       0.00000000
  25       0.00000000
  26      -0.07236204
  27       0.00789549
  28       0.00000000
  29       0.00000000
  30       0.00000000
  31       0.00000000
  32       0.04200401
  33      -0.00458310
  34       0.00000000
  35       0.00000000
  36      -0.00000000
  37      -0.00000000
  38       0.00000000
  39      -0.00000000
  40       0.00000000
  41      -0.00000000
  42       0.00000000
  43      -0.00000000
  44       0.00000000
  45       0.00000000
  46       0.12680619
  47      -0.01383594
  48       0.00000000
  49      -0.08500738
  50       0.00927523
  51       0.00000000
  52       0.49056496
  53      -0.05352598
  54      -0.00000000
  55       0.28703202
  56      -0.03131832
  57      -0.00000000
  58      -0.00000000
  59      -0.00000000
  60       0.04693558
  61      -0.00512118
  62      -0.00000000
  63      -0.00000000
  64      -0.00000000
  65      -0.00000000
  66      -0.13775259
  67       0.01503031
  68       0.00000000
Ene=     2.36738E-02
Spin= Alpha
Occup=   0.0000000000
   1      -0.00000000
   2       0.00000000
   3       0.00000000
   4      -0.00000000
   5       0.00000000
   6      -0.00000000
   7       0.00000000
   8      -0.00000000
   9       0.00000000
  10      -0.00000000
  11       0.00000000
  12      -0.04672367
  13      -0.36048434
  14       0.00000000
  15       0.02723498
  16       0.21012439
  17      -0.00000000
  18      -0.12243191
  19      -0.94459167
  20      -0.00000000
  21       0.11420909
  22       0.88115063
  23       0.00000000
  24       0.00000000
  25       0.00000000
  26      -0.00185595
  27      -0.01431908
  28       0.00000000
  29       0.00000000
  30       0.00000000
  31       0.00000000
  32      -0.01635190
  33      -0.12615888
  34      -0.00000000
  35      -0.00000000
  36      -0.00000000
  37       0.00000000
  38       0.00000000
  39      -0.00000000
  40       0.00000000
  41      -0.00000000
  42       0.00000000
  43      -0.00000000
  44       0.00000000
  45       0.00000000
  46       0.03400206
  47       0.26233408
  48       0.00000000
  49       0.00579386
  50       0.04470106
  51      -0.00000000
  52      -0.04608861
  53      -0.35558468
  54       0.00000000
  55       0.12504275
  56       0.96473494
  57      -0.00000000
  58      -0.00000000
  59      -0.00000000
  60      -0.01840360
  61      -0.14198824
  62      -0.00000000
  63      -0.00000000
  64      -0.00000000
  65      -0.00000000
  66       0.00949080
  67       0.07322379
  68       0.00000000
Ene=     2.36738E-02
Spin= Alpha
Occup=   0.0000000000
   1       0.00000000
   2       0.00000000
   3      -0.00000000
   4       0.00000000
   5      -0.00000000
   6       0.00000000
   7      -0.00000000
   8       0.00000000
   9       0.00000000
  10      -0.00000000
  11       0.00000000
  12      -0.36048434
  13       0.04672367
  14       0.00000000
  15       0.21012439
  16      -0.02723498
  17      -0.00000000
  18      -0.94459167
  19       0.12243191
  20       0.00000000
  21       0.88115063
  22      -0.11420909
  23      -0.00000000
  24       0.00000000
  25       0.00000000
  26      -0.01431908
  27       0.00185595
  28      -0.00000000
  29       0.00000000
  30      -0.00000000
  31      -0.00000000
  32      -0.12615888
  33       0.01635190
  34       0.00000000
  35       0.00000000
  36      -0.00000000
  37      -0.00000000
  38       0.00000000
  39       0.00000000
  40      -0.00000000
  41       0.00000000
  42      -0.00000000
  43       0.00000000
  44       0.00000000
  45       0.00000000
  46       0.26233408
  47      -0.03400206
  48       0.00000000
  49       0.04470106
  50      -0.00579386
  51      -0.00000000
  52      -0.35558468
  53       0.04608861
  54       0.00000000
  55       0.96473494
  56      -0.12504275
  57      -0.00000000
  58      -0.00000000
  59      -0.00000000
  60      -0.14198824
  61       0.01840360
  62       0.00000000
  63      -0.00000000
  64      -0.00000000
  65      -0.00000000
  66       0.07322379
  67      -0.00949080
  68      -0.00000000
Ene=     2.71575E-02
Spin= Alpha
Occup=   0.0000000000
   1       2.13602119
   2      -0.82591090
   3      -2.06952284
   4       0.13545358
   5       0.26735264
   6       0.03720035
   7       0.03677191
   8      -0.02693464
   9      -0.00143492
  10      -0.00003973
  11      -0.99342930
  12      -0.00000000
  13       0.00000000
  14      -0.61838312
  15       0.00000000
  16      -0.00000000
  17      -0.10173486
  18      -0.00000000
  19       0.00000000
  20       0.45308374
  21       0.00000000
  22      -0.00000000
  23      -0.77692845
  24      -0.23043234
  25      -0.23043234
  26      -0.00000000
  27       0.00000000
  28       0.00000000
  29      -0.74859155
  30      -0.73672278
  31      -0.73672278
  32       0.00000000
  33      -0.00000000
  34      -0.00000000
  35       2.10031109
  36       2.48668222
  37      -0.94353545
  38      -0.85772177
  39       0.93366159
  40      -0.04313828
  41       0.05355474
  42      -0.06158005
  43       0.00329010
  44      -0.00099122
  45       0.95382372
  46       0.00000000
  47      -0.00000000
  48      -1.75509868
  49      -0.00000000
  50       0.00000000
  51       0.21639155
  52       0.00000000
  53      -0.00000000
  54       0.01542039
  55      -0.00000000
  56       0.00000000
  57      -0.77401542
  58      -0.21027474
  59      -0.21027474
  60      -0.00000000
  61       0.00000000
  62      -0.00000000
  63       0.13248350
  64      -0.62668232
  65      -0.62668232
  66       0.00000000
  67      -0.00000000
  68       0.00000000
Ene=     2.75457E-02
Spin= Alpha
Occup=   0.0000000000
   1      -3.08516715
   2      -1.39719284
   3       2.78965214
   4      -2.04818460
   5       0.96208465
   6      -0.00691259
   7       0.09197453
   8      -0.05790588
   9      -0.00138369
  10      -0.00032615
  11       1.83861308
  12       0.00000000
  13      -0.00000000
  14      -1.13278651
  15      -0.00000000
  16       0.00000000
  17       1.06718962
  18       0.00000000
  19      -0.00000000
  20      -0.02631975
  21      -0.00000000
  22       0.00000000
  23       1.29170558
  24       0.31951921
  25       0.31951921
  26       0.00000000
  27      -0.00000000
  28       0.00000000
  29       0.39994669
  30       0.88755984
  31       0.88755984
  32      -0.00000000
  33       0.00000000
  34       0.00000000
  35      -3.07078788
  36      -0.74152245
  37       0.85705832
  38       0.73671596
  39      -0.69722026
  40       0.04338233
  41      -0.04145893
  42       0.04542416
  43      -0.00261892
  44       0.00075506
  45      -1.76857086
  46      -0.00000000
  47       0.00000000
  48       0.70430544
  49       0.00000000
  50      -0.00000000
  51      -0.04902746
  52      -0.00000000
  53       0.00000000
  54      -0.04930072
  55       0.00000000
  56      -0.00000000
  57       1.27369427
  58       0.25812488
  59       0.25812488
  60       0.00000000
  61      -0.00000000
  62       0.00000000
  63       0.40785476
  64       0.86845718
  65       0.86845718
  66      -0.00000000
  67       0.00000000
  68      -0.00000000
Ene=     2.83197E-02
Spin= Alpha
Occup=   0.0000000000
   1       0.00000000
   2      -0.00000000
   3       0.00000000
   4      -0.00000000
   5       0.00000000
   6      -0.00000000
   7       0.00000000
   8      -0.00000000
   9       0.00000000
  10      -0.00000000
  11      -0.00000000
  12      -1.31144420
  13       0.06559497
  14      -0.00000000
  15       0.40481183
  16      -0.02024762
  17       0.00000000
  18      -1.21408728
  19       0.06072543
  20      -0.00000000
  21       0.71972849
  22      -0.03599891
  23      -0.00000000
  24      -0.00000000
  25      -0.00000000
  26      -0.39070240
  27       0.01954190
  28       0.00000000
  29      -0.00000000
  30       0.00000000
  31       0.00000000
  32       0.02272381
  33      -0.00113658
  34      -0.00000000
  35      -0.00000000
  36       0.00000000
  37       0.00000000
  38       0.00000000
  39      -0.00000000
  40       0.00000000
  41      -0.00000000
  42       0.00000000
  43      -0.00000000
  44       0.00000000
  45       0.00000000
  46       1.34311680
  47      -0.06717915
  48      -0.00000000
  49      -0.45098265
  50       0.02255696
  51       0.00000000
  52       1.47880693
  53      -0.07396601
  54      -0.00000000
  55      -1.05177900
  56       0.05260720
  57      -0.00000000
  58       0.00000000
  59       0.00000000
  60      -0.30803810
  61       0.01540725
  62      -0.00000000
  63       0.00000000
  64       0.00000000
  65       0.00000000
  66      -0.08654918
  67       0.00432896
  68       0.00000000
Ene=     2.83197E-02
Spin= Alpha
Occup=   0.0000000000
   1       0.00000000
   2       0.00000000
   3      -0.00000000
   4       0.00000000
   5       0.00000000
   6      -0.00000000
   7       0.00000000
   8      -0.00000000
   9       0.00000000
  10      -0.00000000
  11      -0.00000000
  12      -0.06559497
  13      -1.31144420
  14       0.00000000
  15       0.02024762
  16       0.40481183
  17      -0.00000000
  18      -0.06072543
  19      -1.21408728
  20       0.00000000
  21       0.03599891
  22       0.71972849
  23      -0.00000000
  24       0.00000000
  25       0.00000000
  26      -0.01954190
  27      -0.39070240
  28       0.00000000
  29       0.00000000
  30       0.00000000
  31       0.00000000
  32       0.00113658
  33       0.02272381
  34      -0.00000000
  35       0.00000000
  36      -0.00000000
  37      -0.00000000
  38      -0.00000000
  39       0.00000000
  40      -0.00000000
  41       0.00000000
  42      -0.00000000
  43       0.00000000
  44      -0.00000000
  45       0.00000000
  46       0.06717915
  47       1.34311680
  48       0.00000000
  49      -0.02255696
  50      -0.45098265
  51      -0.00000000
  52       0.07396601
  53       1.47880693
  54       0.00000000
  55      -0.05260720
  56      -1.05177900
  57      -0.00000000
  58      -0.00000000
  59      -0.00000000
  60      -0.01540725
  61      -0.30803810
  62      -0.00000000
  63      -0.00000000
  64      -0.00000000
  65      -0.00000000
  66      -0.00432896
  67      -0.08654918
  68       0.00000000
Ene=     3.20782E-02
Spin= Alpha
Occup=   0.0000000000
   1      -3.23893864
   2      -4.39738799
   3       1.96833127
   4      -0.09746834
   5      -0.13832311
   6       0.03379017
   7      -0.01734753
   8       0.00736563
   9      -0.00061286
  10       0.00015369
  11       1.97680041
  12       0.00000000
  13       0.00000000
  14      -2.77823298
  15      -0.00000000
  16      -0.00000000
  17       0.63740087
  18       0.00000000
  19       0.00000000
  20      -0.55712689
  21       0.00000000
  22      -0.00000000
  23       1.45605615
  24       0.38555287
  25       0.38555287
  26       0.00000000
  27       0.00000000
  28       0.00000000
  29       0.04174848
  30       1.06411927
  31       1.06411927
  32      -0.00000000
  33      -0.00000000
  34       0.00000000
  35      -3.19295538
  36       1.63460501
  37       2.91874924
  38      -2.71969182
  39       1.55603514
  40      -0.08704441
  41       0.07072950
  42      -0.07457716
  43       0.00419653
  44      -0.00123269
  45      -1.74278364
  46      -0.00000000
  47      -0.00000000
  48      -1.01820922
  49       0.00000000
  50       0.00000000
  51      -0.74718226
  52      -0.00000000
  53      -0.00000000
  54       0.11798831
  55       0.00000000
  56       0.00000000
  57       1.18691537
  58       0.23584150
  59       0.23584150
  60       0.00000000
  61       0.00000000
  62       0.00000000
  63       1.06151633
  64       0.79976536
  65       0.79976536
  66      -0.00000000
  67      -0.00000000
  68      -0.00000000
Ene=     3.38813E-02
Spin= Alpha
Occup=   0.0000000000
   1      -1.76809206
   2      -0.49093328
   3       3.16493550
   4      -2.44707406
   5       0.96168840
   6      -0.01433261
   7       0.07580995
   8      -0.04671848
   9      -0.00094750
  10      -0.00029025
  11       0.39570229
  12       0.00000000
  13      -0.00000000
  14       0.48490490
  15      -0.00000000
  16       0.00000000
  17      -1.07890989
  18       0.00000000
  19      -0.00000000
  20       0.69851460
  21      -0.00000000
  22      -0.00000000
  23       0.49830655
  24       0.24662785
  25       0.24662785
  26       0.00000000
  27      -0.00000000
  28       0.00000000
  29       0.79032506
  30       0.85228160
  31       0.85228160
  32      -0.00000000
  33       0.00000000
  34      -0.00000000
  35      -1.72012658
  36      -1.99688118
  37       2.57907030
  38      -1.79095316
  39       0.84394800
  40      -0.05653911
  41       0.03733928
  42      -0.03741135
  43       0.00226389
  44      -0.00063753
  45      -0.29595317
  46      -0.00000000
  47       0.00000000
  48       0.98397510
  49       0.00000000
  50      -0.00000000
  51      -0.28043396
  52      -0.00000000
  53       0.00000000
  54       0.01762167
  55       0.00000000
  56       0.00000000
  57       0.39053004
  58       0.20560927
  59       0.20560927
  60       0.00000000
  61      -0.00000000
  62       0.00000000
  63       0.15689494
  64       0.58004156
  65       0.58004156
  66      -0.00000000
  67       0.00000000
  68      -0.00000000
Ene=     3.54630E-02
Spin= Alpha
Occup=   0.0000000000
   1      -1.31919692
   2      -5.60666505
   3       1.61694351
   4      -0.42006329
   5       0.03231817
   6       0.04407054
   7      -0.00186318
   8      -0.00338105
   9      -0.00107602
  10       0.00012125
  11       0.47794141
  12      -0.00000000
  13       0.00000000
  14      -3.61134765
  15       0.00000000
  16      -0.00000000
  17       1.09714440
  18      -0.00000000
  19       0.00000000
  20      -0.40737713
  21      -0.00000000
  22      -0.00000000
  23       0.55968097
  24       0.38237693
  25       0.38237693
  26      -0.00000000
  27       0.00000000
  28      -0.00000000
  29      -0.60266277
  30       0.61776207
  31       0.61776207
  32       0.00000000
  33      -0.00000000
  34       0.00000000
  35      -1.20576975
  36       4.18537679
  37       1.59967316
  38      -1.00952103
  39       0.40816824
  40      -0.05423009
  41       0.02252808
  42      -0.01748721
  43       0.00153031
  44      -0.00035885
  45       0.03416495
  46       0.00000000
  47      -0.00000000
  48      -3.20961731
  49      -0.00000000
  50       0.00000000
  51       1.23969451
  52       0.00000000
  53      -0.00000000
  54      -0.17823135
  55       0.00000000
  56       0.00000000
  57       0.08116957
  58      -0.04598035
  59      -0.04598035
  60      -0.00000000
  61       0.00000000
  62      -0.00000000
  63       1.17106108
  64       0.37437276
  65       0.37437276
  66       0.00000000
  67      -0.00000000
  68       0.00000000
Ene=     3.96586E-02
Spin= Alpha
Occup=   0.0000000000
   1      -0.83149819
   2      -0.99587913
   3       3.74200382
   4      -1.26762206
   5       0.30195499
   6       0.03440915
   7       0.01676274
   8      -0.01405373
   9      -0.00110340
  10       0.00002696
  11       3.27231666
  12      -0.00000000