[Molden Format]
[Atoms] AU
E+       1       4     0.00000000     0.00000000     0.00000000
E+       2       4    39.80000000     0.00000000     0.00000000
[GTO]
  1 0
s  1 1.00
   1.0000000000E-04   1.0000000000E+00
s  1 1.00
   3.0000000000E-04   1.0000000000E+00
s  1 1.00
   9.0000000000E-04   1.0000000000E+00
s  1 1.00
   2.7000000000E-03   1.0000000000E+00
s  1 1.00
   8.1000000000E-03   1.0000000000E+00
s  1 1.00
   2.4300000000E-02   1.0000000000E+00
s  1 1.00
   7.2900000000E-02   1.0000000000E+00
s  1 1.00
   2.1870000000E-01   1.0000000000E+00
s  1 1.00
   6.5610000000E-01   1.0000000000E+00
s  1 1.00
   1.9683000000E+00   1.0000000000E+00
p  1 1.00
   1.0000000000E-04   1.0000000000E+00
p  1 1.00
   3.0000000000E-04   1.0000000000E+00
p  1 1.00
   9.0000000000E-04   1.0000000000E+00
p  1 1.00
   2.7000000000E-03   1.0000000000E+00
d  1 1.00
   1.0000000000E-04   1.0000000000E+00
d  1 1.00
   3.0000000000E-04   1.0000000000E+00
 
  2 0
s  1 1.00
   1.0000000000E-04   1.0000000000E+00
s  1 1.00
   3.0000000000E-04   1.0000000000E+00
s  1 1.00
   9.0000000000E-04   1.0000000000E+00
s  1 1.00
   2.7000000000E-03   1.0000000000E+00
s  1 1.00
   8.1000000000E-03   1.0000000000E+00
s  1 1.00
   2.4300000000E-02   1.0000000000E+00
s  1 1.00
   7.2900000000E-02   1.0000000000E+00
s  1 1.00
   2.1870000000E-01   1.0000000000E+00
s  1 1.00
   6.5610000000E-01   1.0000000000E+00
s  1 1.00
   1.9683000000E+00   1.0000000000E+00
p  1 1.00
   1.0000000000E-04   1.0000000000E+00
p  1 1.00
   3.0000000000E-04   1.0000000000E+00
p  1 1.00
   9.0000000000E-04   1.0000000000E+00
p  1 1.00
   2.7000000000E-03   1.0000000000E+00
d  1 1.00
   1.0000000000E-04   1.0000000000E+00
d  1 1.00
   3.0000000000E-04   1.0000000000E+00
 
 
[MO]
Ene=    -3.66993E-03
Spin= Alpha
Occup=   1.0000000000
   1       0.02449570
   2      -0.01159544
   3      -0.02018851
   4      -0.19355266
   5      -0.30292160
   6      -0.19837129
   7      -0.12277464
   8       0.09921600
   9       0.00679216
  10      -0.00009570
  11      -0.07391637
  12       0.00000000
  13      -0.00000000
  14       0.02170576
  15      -0.00000000
  16       0.00000000
  17      -0.02327639
  18      -0.00000000
  19      -0.00000000
  20      -0.04421278
  21       0.00000000
  22       0.00000000
  23      -0.02519815
  24       0.00073738
  25       0.00073738
  26      -0.00000000
  27      -0.00000000
  28       0.00000000
  29       0.01063044
  30       0.00252205
  31       0.00252205
  32      -0.00000000
  33       0.00000000
  34      -0.00000000
  35       0.02449570
  36      -0.01159544
  37      -0.02018851
  38      -0.19355266
  39      -0.30292160
  40      -0.19837129
  41      -0.12277464
  42       0.09921600
  43       0.00679216
  44      -0.00009570
  45       0.07391637
  46       0.00000000
  47       0.00000000
  48      -0.02170576
  49       0.00000000
  50      -0.00000000
  51       0.02327639
  52      -0.00000000
  53       0.00000000
  54       0.04421278
  55       0.00000000
  56      -0.00000000
  57      -0.02519815
  58       0.00073738
  59       0.00073738
  60       0.00000000
  61      -0.00000000
  62      -0.00000000
  63       0.01063044
  64       0.00252205
  65       0.00252205
  66      -0.00000000
  67      -0.00000000
  68       0.00000000
Ene=    -3.40030E-03
Spin= Alpha
Occup=   0.0000000000
   1      -0.00014637
   2       0.00013396
   3       0.00795956
   4       0.25746237
   5       0.28737080
   6       0.21670028
   7       0.12404009
   8      -0.10195840
   9      -0.00729226
  10       0.00014282
  11       0.00068064
  12       0.00000000
  13       0.00000000
  14      -0.00105537
  15      -0.00000000
  16      -0.00000000
  17       0.00437651
  18       0.00000000
  19       0.00000000
  20       0.07574260
  21      -0.00000000
  22      -0.00000000
  23       0.00023116
  24       0.00108660
  25       0.00108660
  26       0.00000000
  27       0.00000000
  28       0.00000000
  29       0.00083174
  30      -0.00035658
  31      -0.00035658
  32      -0.00000000
  33      -0.00000000
  34      -0.00000000
  35       0.00014637
  36      -0.00013396
  37      -0.00795956
  38      -0.25746237
  39      -0.28737080
  40      -0.21670028
  41      -0.12404009
  42       0.10195840
  43       0.00729226
  44      -0.00014282
  45       0.00068064
  46      -0.00000000
  47      -0.00000000
  48      -0.00105537
  49       0.00000000
  50       0.00000000
  51       0.00437651
  52       0.00000000
  53      -0.00000000
  54       0.07574260
  55      -0.00000000
  56      -0.00000000
  57      -0.00023116
  58      -0.00108660
  59      -0.00108660
  60       0.00000000
  61       0.00000000
  62       0.00000000
  63      -0.00083174
  64       0.00035658
  65       0.00035658
  66       0.00000000
  67      -0.00000000
  68      -0.00000000
Ene=     4.29618E-03
Spin= Alpha
Occup=   0.0000000000
   1       0.64836629
   2       0.09566423
   3      -0.98874934
   4       0.60789070
   5       0.06971851
   6       0.11593246
   7       0.03882217
   8      -0.03664888
   9      -0.00347117
  10       0.00016859
  11      -1.16666739
  12      -0.00000000
  13       0.00000000
  14       0.36822412
  15      -0.00000000
  16      -0.00000000
  17      -0.46315534
  18       0.00000000
  19       0.00000000
  20       0.04051587
  21      -0.00000000
  22       0.00000000
  23      -0.43351717
  24      -0.02674606
  25      -0.02674606
  26       0.00000000
  27       0.00000000
  28       0.00000000
  29       0.04254331
  30      -0.09043293
  31      -0.09043293
  32       0.00000000
  33      -0.00000000
  34       0.00000000
  35       0.64836629
  36       0.09566423
  37      -0.98874934
  38       0.60789070
  39       0.06971851
  40       0.11593246
  41       0.03882217
  42      -0.03664888
  43      -0.00347117
  44       0.00016859
  45       1.16666739
  46       0.00000000
  47      -0.00000000
  48      -0.36822412
  49       0.00000000
  50       0.00000000
  51       0.46315534
  52      -0.00000000
  53       0.00000000
  54      -0.04051587
  55       0.00000000
  56      -0.00000000
  57      -0.43351717
  58      -0.02674606
  59      -0.02674606
  60      -0.00000000
  61       0.00000000
  62      -0.00000000
  63       0.04254331
  64      -0.09043293
  65      -0.09043293
  66      -0.00000000
  67      -0.00000000
  68      -0.00000000
Ene=     7.00012E-03
Spin= Alpha
Occup=   0.0000000000
   1      -0.00000000
   2      -0.00000000
   3       0.00000000
   4      -0.00000000
   5       0.00000000
   6      -0.00000000
   7       0.00000000
   8       0.00000000
   9      -0.00000000
  10       0.00000000
  11       0.00000000
  12      -0.00450271
  13       0.02877095
  14      -0.00000000
  15       0.01335467
  16      -0.08533235
  17       0.00000000
  18      -0.04521004
  19       0.28887872
  20      -0.00000000
  21      -0.06510005
  22       0.41596996
  23       0.00000000
  24       0.00000000
  25       0.00000000
  26       0.00244708
  27      -0.01563611
  28       0.00000000
  29       0.00000000
  30       0.00000000
  31       0.00000000
  32      -0.00644816
  33       0.04120181
  34      -0.00000000
  35      -0.00000000
  36      -0.00000000
  37       0.00000000
  38      -0.00000000
  39       0.00000000
  40      -0.00000000
  41       0.00000000
  42      -0.00000000
  43       0.00000000
  44      -0.00000000
  45      -0.00000000
  46      -0.00450271
  47       0.02877095
  48       0.00000000
  49       0.01335467
  50      -0.08533235
  51       0.00000000
  52      -0.04521004
  53       0.28887872
  54       0.00000000
  55      -0.06510005
  56       0.41596996
  57       0.00000000
  58       0.00000000
  59      -0.00000000
  60      -0.00244708
  61       0.01563611
  62      -0.00000000
  63       0.00000000
  64       0.00000000
  65       0.00000000
  66       0.00644816
  67      -0.04120181
  68       0.00000000
Ene=     7.00012E-03
Spin= Alpha
Occup=   0.0000000000
   1       0.00000000
   2       0.00000000
   3      -0.00000000
   4       0.00000000
   5      -0.00000000
   6       0.00000000
   7      -0.00000000
   8       0.00000000
   9      -0.00000000
  10       0.00000000
  11      -0.00000000
  12       0.02877095
  13       0.00450271
  14      -0.00000000
  15      -0.08533235
  16      -0.01335467
  17      -0.00000000
  18       0.28887872
  19       0.04521004
  20       0.00000000
  21       0.41596996
  22       0.06510005
  23      -0.00000000
  24      -0.00000000
  25      -0.00000000
  26      -0.01563611
  27      -0.00244708
  28       0.00000000
  29      -0.00000000
  30      -0.00000000
  31      -0.00000000
  32       0.04120181
  33       0.00644816
  34      -0.00000000
  35       0.00000000
  36       0.00000000
  37       0.00000000
  38      -0.00000000
  39       0.00000000
  40      -0.00000000
  41       0.00000000
  42       0.00000000
  43      -0.00000000
  44       0.00000000
  45       0.00000000
  46       0.02877095
  47       0.00450271
  48       0.00000000
  49      -0.08533235
  50      -0.01335467
  51       0.00000000
  52       0.28887872
  53       0.04521004
  54       0.00000000
  55       0.41596996
  56       0.06510005
  57      -0.00000000
  58       0.00000000
  59       0.00000000
  60       0.01563611
  61       0.00244708
  62       0.00000000
  63       0.00000000
  64       0.00000000
  65       0.00000000
  66      -0.04120181
  67      -0.00644816
  68       0.00000000
Ene=     9.30438E-03
Spin= Alpha
Occup=   0.0000000000
   1      -0.00000000
   2       0.00000000
   3       0.00000000
   4      -0.00000000
   5       0.00000000
   6      -0.00000000
   7       0.00000000
   8      -0.00000000
   9      -0.00000000
  10       0.00000000
  11       0.00000000
  12       0.01073356
  13      -0.00258253
  14      -0.00000000
  15       0.06838928
  16      -0.01645466
  17       0.00000000
  18       0.02402035
  19      -0.00577936
  20      -0.00000000
  21       0.71977583
  22      -0.17318013
  23       0.00000000
  24       0.00000000
  25       0.00000000
  26      -0.00076838
  27       0.00018488
  28       0.00000000
  29      -0.00000000
  30      -0.00000000
  31      -0.00000000
  32       0.03172208
  33      -0.00763242
  34      -0.00000000
  35      -0.00000000
  36      -0.00000000
  37       0.00000000
  38      -0.00000000
  39       0.00000000
  40      -0.00000000
  41       0.00000000
  42       0.00000000
  43      -0.00000000
  44       0.00000000
  45      -0.00000000
  46      -0.01073356
  47       0.00258253
  48       0.00000000
  49      -0.06838928
  50       0.01645466
  51      -0.00000000
  52      -0.02402035
  53       0.00577936
  54       0.00000000
  55      -0.71977583
  56       0.17318013
  57       0.00000000
  58      -0.00000000
  59      -0.00000000
  60      -0.00076838
  61       0.00018488
  62      -0.00000000
  63      -0.00000000
  64       0.00000000
  65       0.00000000
  66       0.03172208
  67      -0.00763242
  68      -0.00000000
Ene=     9.30438E-03
Spin= Alpha
Occup=   0.0000000000
   1       0.00000000
   2      -0.00000000
   3      -0.00000000
   4      -0.00000000
   5       0.00000000
   6      -0.00000000
   7       0.00000000
   8      -0.00000000
   9      -0.00000000
  10       0.00000000
  11      -0.00000000
  12      -0.00258253
  13      -0.01073356
  14      -0.00000000
  15      -0.01645466
  16      -0.06838928
  17      -0.00000000
  18      -0.00577936
  19      -0.02402035
  20      -0.00000000
  21      -0.17318013
  22      -0.71977583
  23      -0.00000000
  24       0.00000000
  25       0.00000000
  26       0.00018488
  27       0.00076838
  28      -0.00000000
  29       0.00000000
  30       0.00000000
  31       0.00000000
  32      -0.00763242
  33      -0.03172208
  34       0.00000000
  35      -0.00000000
  36      -0.00000000
  37       0.00000000
  38      -0.00000000
  39       0.00000000
  40      -0.00000000
  41       0.00000000
  42       0.00000000
  43       0.00000000
  44      -0.00000000
  45       0.00000000
  46       0.00258253
  47       0.01073356
  48       0.00000000
  49       0.01645466
  50       0.06838928
  51      -0.00000000
  52       0.00577936
  53       0.02402035
  54       0.00000000
  55       0.17318013
  56       0.71977583
  57      -0.00000000
  58       0.00000000
  59       0.00000000
  60       0.00018488
  61       0.00076838
  62       0.00000000
  63      -0.00000000
  64      -0.00000000
  65      -0.00000000
  66      -0.00763242
  67      -0.03172208
  68      -0.00000000
Ene=     9.80532E-03
Spin= Alpha
Occup=   0.0000000000
   1       0.03211852
   2       0.00658650
   3      -2.12066750
   4      -0.22008027
   5       0.57142550
   6       0.02828131
   7       0.08180835
   8      -0.05461488
   9      -0.00185397
  10      -0.00022643
  11      -0.14602182
  12       0.00000000
  13       0.00000000
  14       0.01077902
  15      -0.00000000
  16       0.00000000
  17      -0.80541328
  18      -0.00000000
  19      -0.00000000
  20      -0.38987519
  21       0.00000000
  22       0.00000000
  23      -0.11088926
  24      -0.17314963
  25      -0.17314963
  26       0.00000000
  27       0.00000000
  28      -0.00000000
  29      -0.26256741
  30      -0.13720652
  31      -0.13720652
  32      -0.00000000
  33       0.00000000
  34       0.00000000
  35      -0.03211852
  36      -0.00658650
  37       2.12066750
  38       0.22008027
  39      -0.57142550
  40      -0.02828131
  41      -0.08180835
  42       0.05461488
  43       0.00185397
  44       0.00022643
  45      -0.14602182
  46      -0.00000000
  47      -0.00000000
  48       0.01077902
  49       0.00000000
  50      -0.00000000
  51      -0.80541328
  52       0.00000000
  53       0.00000000
  54      -0.38987519
  55       0.00000000
  56      -0.00000000
  57       0.11088926
  58       0.17314963
  59       0.17314963
  60       0.00000000
  61       0.00000000
  62      -0.00000000
  63       0.26256741
  64       0.13720652
  65       0.13720652
  66      -0.00000000
  67       0.00000000
  68       0.00000000
Ene=     1.00769E-02
Spin= Alpha
Occup=   0.0000000000
   1       0.38788059
   2      -0.27542659
   3      -0.54859303
   4       1.22431789
   5      -0.63265441
   6       0.05309839
   7      -0.07178626
   8       0.04004547
   9      -0.00026914
  10       0.00039785
  11      -1.41354044
  12      -0.00000000
  13      -0.00000000
  14       0.38423648
  15      -0.00000000
  16       0.00000000
  17      -0.59081892
  18      -0.00000000
  19       0.00000000
  20       0.74712351
  21       0.00000000
  22      -0.00000000
  23      -0.46990541
  24       0.02569486
  25       0.02569486
  26      -0.00000000
  27      -0.00000000
  28      -0.00000000
  29       0.21983881
  30       0.08847116
  31       0.08847116
  32       0.00000000
  33      -0.00000000
  34       0.00000000
  35       0.38788059
  36      -0.27542659
  37      -0.54859303
  38       1.22431789
  39      -0.63265441
  40       0.05309839
  41      -0.07178626
  42       0.04004547
  43      -0.00026914
  44       0.00039785
  45       1.41354044
  46       0.00000000
  47       0.00000000
  48      -0.38423648
  49      -0.00000000
  50      -0.00000000
  51       0.59081892
  52       0.00000000
  53      -0.00000000
  54      -0.74712351
  55      -0.00000000
  56       0.00000000
  57      -0.46990541
  58       0.02569486
  59       0.02569486
  60      -0.00000000
  61      -0.00000000
  62       0.00000000
  63       0.21983881
  64       0.08847116
  65       0.08847116
  66      -0.00000000
  67       0.00000000
  68      -0.00000000
Ene=     1.42063E-02
Spin= Alpha
Occup=   0.0000000000
   1      -0.00000000
   2      -0.00000000
   3       0.00000000
   4      -0.00000000
   5       0.00000000
   6      -0.00000000
   7       0.00000000
   8      -0.00000000
   9       0.00000000
  10       0.00000000
  11       0.00000000
  12       0.07276595
  13      -0.01020541
  14       0.00000000
  15      -0.23244863
  16       0.03260088
  17       0.00000000
  18       0.97406076
  19      -0.13661185
  20      -0.00000000
  21      -0.93165365
  22       0.13066426
  23       0.00000000
  24       0.00000000
  25       0.00000000
  26      -0.02543140
  27       0.00356675
  28       0.00000000
  29       0.00000000
  30       0.00000000
  31       0.00000000
  32       0.08728621
  33      -0.01224188
  34      -0.00000000
  35      -0.00000000
  36      -0.00000000
  37      -0.00000000
  38       0.00000000
  39      -0.00000000
  40       0.00000000
  41      -0.00000000
  42       0.00000000
  43      -0.00000000
  44       0.00000000
  45      -0.00000000
  46       0.07276595
  47      -0.01020541
  48      -0.00000000
  49      -0.23244863
  50       0.03260088
  51       0.00000000
  52       0.97406076
  53      -0.13661185
  54      -0.00000000
  55      -0.93165365
  56       0.13066426
  57       0.00000000
  58       0.00000000
  59       0.00000000
  60       0.02543140
  61      -0.00356675
  62       0.00000000
  63       0.00000000
  64       0.00000000
  65       0.00000000
  66      -0.08728621
  67       0.01224188
  68      -0.00000000
Ene=     1.42063E-02
Spin= Alpha
Occup=   0.0000000000
   1       0.00000000
   2       0.00000000
   3       0.00000000
   4       0.00000000
   5      -0.00000000
   6       0.00000000
   7       0.00000000
   8      -0.00000000
   9       0.00000000
  10       0.00000000
  11      -0.00000000
  12      -0.01020541
  13      -0.07276595
  14       0.00000000
  15       0.03260088
  16       0.23244863
  17      -0.00000000
  18      -0.13661185
  19      -0.97406076
  20       0.00000000
  21       0.13066426
  22       0.93165365
  23      -0.00000000
  24       0.00000000
  25       0.00000000
  26       0.00356675
  27       0.02543140
  28      -0.00000000
  29      -0.00000000
  30       0.00000000
  31       0.00000000
  32      -0.01224188
  33      -0.08728621
  34       0.00000000
  35       0.00000000
  36       0.00000000
  37      -0.00000000
  38       0.00000000
  39      -0.00000000
  40       0.00000000
  41      -0.00000000
  42       0.00000000
  43      -0.00000000
  44       0.00000000
  45       0.00000000
  46      -0.01020541
  47      -0.07276595
  48      -0.00000000
  49       0.03260088
  50       0.23244863
  51       0.00000000
  52      -0.13661185
  53      -0.97406076
  54       0.00000000
  55       0.13066426
  56       0.93165365
  57      -0.00000000
  58      -0.00000000
  59      -0.00000000
  60      -0.00356675
  61      -0.02543140
  62       0.00000000
  63      -0.00000000
  64      -0.00000000
  65      -0.00000000
  66       0.01224188
  67       0.08728621
  68      -0.00000000
Ene=     1.50758E-02
Spin= Alpha
Occup=   0.0000000000
   1       0.14876440
   2      -0.04760185
   3      -0.26699816
   4       1.37591538
   5      -0.82396276
   6      -0.01592743
   7      -0.08850221
   8       0.05763827
   9       0.00173919
  10       0.00027307
  11      -0.55036039
  12       0.00000000
  13      -0.00000000
  14       0.06335585
  15      -0.00000000
  16       0.00000000
  17      -0.24954930
  18       0.00000000
  19      -0.00000000
  20      -0.24800895
  21      -0.00000000
  22       0.00000000
  23      -0.17898399
  24       0.00924877
  25       0.00924877
  26       0.00000000
  27      -0.00000000
  28      -0.00000000
  29       0.02543470
  30       0.03744993
  31       0.03744993
  32      -0.00000000
  33       0.00000000
  34       0.00000000
  35       0.14876440
  36      -0.04760185
  37      -0.26699816
  38       1.37591538
  39      -0.82396276
  40      -0.01592743
  41      -0.08850221
  42       0.05763827
  43       0.00173919
  44       0.00027307
  45       0.55036039
  46      -0.00000000
  47       0.00000000
  48      -0.06335585
  49       0.00000000
  50      -0.00000000
  51       0.24954930
  52      -0.00000000
  53       0.00000000
  54       0.24800895
  55      -0.00000000
  56      -0.00000000
  57      -0.17898399
  58       0.00924877
  59       0.00924877
  60       0.00000000
  61      -0.00000000
  62       0.00000000
  63       0.02543470
  64       0.03744993
  65       0.03744993
  66      -0.00000000
  67       0.00000000
  68      -0.00000000
Ene=     1.52430E-02
Spin= Alpha
Occup=   0.0000000000
   1      -0.00596700
   2      -0.05669706
   3      -0.94751865
   4       0.49703106
   5      -0.17791148
   6       0.06428190
   7      -0.01191955
   8       0.00110354
   9      -0.00136333
  10       0.00020327
  11       0.02314269
  12      -0.00000000
  13      -0.00000000
  14       0.10992135
  15       0.00000000
  16       0.00000000
  17      -0.67388230
  18      -0.00000000
  19      -0.00000000
  20       0.98766479
  21       0.00000000
  22       0.00000000
  23       0.05727322
  24      -0.00522371
  25      -0.00522371
  26      -0.00000000
  27      -0.00000000
  28       0.00000000
  29       0.07105631
  30       0.14415908
  31       0.14415908
  32       0.00000000
  33       0.00000000
  34      -0.00000000
  35       0.00596700
  36       0.05669706
  37       0.94751865
  38      -0.49703106
  39       0.17791148
  40      -0.06428190
  41       0.01191955
  42      -0.00110354
  43       0.00136333
  44      -0.00020327
  45       0.02314269
  46       0.00000000
  47       0.00000000
  48       0.10992135
  49      -0.00000000
  50      -0.00000000
  51      -0.67388230
  52       0.00000000
  53       0.00000000
  54       0.98766479
  55      -0.00000000
  56      -0.00000000
  57      -0.05727322
  58       0.00522371
  59       0.00522371
  60      -0.00000000
  61      -0.00000000
  62       0.00000000
  63      -0.07105631
  64      -0.14415908
  65      -0.14415908
  66       0.00000000
  67       0.00000000
  68      -0.00000000
Ene=     1.86123E-02
Spin= Alpha
Occup=   0.0000000000
   1       0.02348817
   2      -0.05099378
   3      -4.02537906
   4       2.62254493
   5      -1.12663868
   6       0.02383091
   7      -0.10231613
   8       0.06233025
   9       0.00102071
  10       0.00041950
  11      -0.11167241
  12      -0.00000000
  13       0.00000000
  14       0.09525939
  15       0.00000000
  16       0.00000000
  17      -1.77095173
  18      -0.00000000
  19      -0.00000000
  20       0.04554560
  21       0.00000000
  22       0.00000000
  23      -0.04259035
  24      -0.16521016
  25      -0.16521016
  26      -0.00000000
  27       0.00000000
  28       0.00000000
  29      -0.19123810
  30       0.00840982
  31       0.00840982
  32       0.00000000
  33       0.00000000
  34      -0.00000000
  35      -0.02348817
  36       0.05099378
  37       4.02537906
  38      -2.62254493
  39       1.12663868
  40      -0.02383091
  41       0.10231613
  42      -0.06233025
  43      -0.00102071
  44      -0.00041950
  45      -0.11167241
  46       0.00000000
  47      -0.00000000
  48       0.09525939
  49      -0.00000000
  50      -0.00000000
  51      -1.77095173
  52       0.00000000
  53       0.00000000
  54       0.04554560
  55      -0.00000000
  56      -0.00000000
  57       0.04259035
  58       0.16521016
  59       0.16521016
  60      -0.00000000
  61       0.00000000
  62       0.00000000
  63       0.19123810
  64      -0.00840982
  65      -0.00840982
  66       0.00000000
  67       0.00000000
  68       0.00000000
Ene=     2.07026E-02
Spin= Alpha
Occup=   0.0000000000
   1       0.00000000
   2       0.00000000
   3       0.00000000
   4      -0.00000000
   5       0.00000000
   6       0.00000000
   7       0.00000000
   8      -0.00000000
   9      -0.00000000
  10      -0.00000000
  11       0.00000000
  12      -4.87762046
  13      -3.44182233
  14       0.00000000
  15       1.09681972
  16       0.77395497
  17       0.00000000
  18      -1.37576236
  19      -0.97078681
  20      -0.00000000
  21       0.66362704
  22       0.46827882
  23       0.00000000
  24       0.00000000
  25       0.00000000
  26      -0.95242716
  27      -0.67206645
  28      -0.00000000
  29       0.00000000
  30      -0.00000000
  31      -0.00000000
  32       0.20943828
  33       0.14778709
  34       0.00000000
  35      -0.00000000
  36      -0.00000000
  37      -0.00000000
  38       0.00000000
  39      -0.00000000
  40      -0.00000000
  41      -0.00000000
  42       0.00000000
  43       0.00000000
  44      -0.00000000
  45      -0.00000000
  46       4.87762046
  47       3.44182233
  48       0.00000000
  49      -1.09681972
  50      -0.77395497
  51      -0.00000000
  52       1.37576236
  53       0.97078681
  54       0.00000000
  55      -0.66362704
  56      -0.46827882
  57       0.00000000
  58      -0.00000000
  59      -0.00000000
  60      -0.95242716
  61      -0.67206645
  62       0.00000000
  63      -0.00000000
  64      -0.00000000
  65      -0.00000000
  66       0.20943828
  67       0.14778709
  68      -0.00000000
Ene=     2.07026E-02
Spin= Alpha
Occup=   0.0000000000
   1       0.00000000
   2       0.00000000
   3       0.00000000
   4      -0.00000000
   5       0.00000000
   6       0.00000000
   7      -0.00000000
   8      -0.00000000
   9      -0.00000000
  10      -0.00000000
  11       0.00000000
  12      -3.44182233
  13       4.87762046
  14       0.00000000
  15       0.77395497
  16      -1.09681972
  17       0.00000000
  18      -0.97078681
  19       1.37576236
  20      -0.00000000
  21       0.46827882
  22      -0.66362704
  23       0.00000000
  24       0.00000000
  25       0.00000000
  26      -0.67206645
  27       0.95242716
  28       0.00000000
  29       0.00000000
  30       0.00000000
  31       0.00000000
  32       0.14778709
  33      -0.20943828
  34      -0.00000000
  35      -0.00000000
  36      -0.00000000
  37      -0.00000000
  38       0.00000000
  39      -0.00000000
  40      -0.00000000
  41       0.00000000
  42       0.00000000
  43       0.00000000
  44      -0.00000000
  45       0.00000000
  46       3.44182233
  47      -4.87762046
  48       0.00000000
  49      -0.77395497
  50       1.09681972
  51      -0.00000000
  52       0.97078681
  53      -1.37576236
  54       0.00000000
  55      -0.46827882
  56       0.66362704
  57       0.00000000
  58      -0.00000000
  59      -0.00000000
  60      -0.67206645
  61       0.95242716
  62      -0.00000000
  63      -0.00000000
  64      -0.00000000
  65      -0.00000000
  66       0.14778709
  67      -0.20943828
  68       0.00000000
Ene=     2.58292E-02
Spin= Alpha
Occup=   0.0000000000
   1       1.09064299
   2      -1.35217196
   3       1.82863462
   4      -1.25193449
   5       0.43460327
   6       0.04658743
   7       0.03099249
   8      -0.02407749
   9      -0.00156052
  10       0.00000042
  11      -3.83264836
  12       0.00000000
  13       0.00000000
  14       1.00801389
  15      -0.00000000
  16      -0.00000000
  17      -1.17256114
  18      -0.00000000
  19       0.00000000
  20       0.62691550
  21       0.00000000
  22       0.00000000
  23      -1.29378586
  24       0.06277064
  25       0.06277064
  26       0.00000000
  27       0.00000000
  28      -0.00000000
  29       0.69257738
  30       0.30755955
  31       0.30755955
  32      -0.00000000
  33      -0.00000000
  34       0.00000000
  35       1.09064299
  36      -1.35217196
  37       1.82863462
  38      -1.25193449
  39       0.43460327
  40       0.04658743
  41       0.03099249
  42      -0.02407749
  43      -0.00156052
  44       0.00000042
  45       3.83264836
  46      -0.00000000
  47      -0.00000000
  48      -1.00801389
  49       0.00000000
  50       0.00000000
  51       1.17256114
  52       0.00000000
  53      -0.00000000
  54      -0.62691550
  55      -0.00000000
  56      -0.00000000
  57      -1.29378586
  58       0.06277064
  59       0.06277064
  60       0.00000000
  61       0.00000000
  62       0.00000000
  63       0.69257738
  64       0.30755955
  65       0.30755955
  66      -0.00000000
  67      -0.00000000
  68      -0.00000000
Ene=     2.78621E-02
Spin= Alpha
Occup=   0.0000000000
   1       0.06260172
   2       0.35059701
   3       0.95079469
   4       0.41653070
   5      -0.15958008
   6      -0.02244500
   7      -0.01181478
   8       0.00950301
   9       0.00065523
  10      -0.00000522
  11      -0.26460329
  12       0.00000000
  13      -0.00000000
  14      -0.71366368
  15      -0.00000000
  16      -0.00000000
  17       2.94715599
  18       0.00000000
  19      -0.00000000
  20      -0.75322408
  21      -0.00000000
  22       0.00000000
  23      -0.41069747
  24      -0.14345449
  25      -0.14345449
  26       0.00000000
  27      -0.00000000
  28      -0.00000000
  29      -0.73398444
  30      -0.94219784
  31      -0.94219784
  32      -0.00000000
  33      -0.00000000
  34       0.00000000
  35      -0.06260172
  36      -0.35059701
  37      -0.95079469
  38      -0.41653070
  39       0.15958008
  40       0.02244500
  41       0.01181478
  42      -0.00950301
  43      -0.00065523
  44       0.00000522
  45      -0.26460329
  46      -0.00000000
  47       0.00000000
  48      -0.71366368
  49       0.00000000
  50       0.00000000
  51       2.94715599
  52      -0.00000000
  53      -0.00000000
  54      -0.75322408
  55       0.00000000
  56      -0.00000000
  57       0.41069747
  58       0.14345449
  59       0.14345449
  60       0.00000000
  61      -0.00000000
  62       0.00000000
  63       0.73398444
  64       0.94219784
  65       0.94219784
  66      -0.00000000
  67      -0.00000000
  68      -0.00000000
Ene=     2.98968E-02
Spin= Alpha
Occup=   0.0000000000
   1      -5.38831409
   2      -2.35400151
   3       4.78587355
   4      -2.09904370
   5       0.44893064
   6       0.10851121
   7       0.02135585
   8      -0.02409387
   9      -0.00286882
  10       0.00018294
  11       4.38470277
  12      -0.00000000