 Molden2AIM, Version 3.1.0 (02/25/2015)           Time: Thu Oct 17 19:54:47 2024
GAUSSIAN             68 MOL ORBITALS     68 PRIMITIVES        2 NUCLEI
  Be   1    (CENTRE  1)   0.00000000  0.00000000  0.00000000  CHARGE =  4.0
  Be   2    (CENTRE  2)  37.40000000  0.00000000  0.00000000  CHARGE =  4.0
CENTRE ASSIGNMENTS    1  1  1  1  1  1  1  1  1  1  1  1  1  1  1  1  1  1  1  1
CENTRE ASSIGNMENTS    1  1  1  1  1  1  1  1  1  1  1  1  1  1  2  2  2  2  2  2
CENTRE ASSIGNMENTS    2  2  2  2  2  2  2  2  2  2  2  2  2  2  2  2  2  2  2  2
CENTRE ASSIGNMENTS    2  2  2  2  2  2  2  2
TYPE ASSIGNMENTS      1  1  1  1  1  1  1  1  1  1  2  3  4  2  3  4  2  3  4  2
TYPE ASSIGNMENTS      3  4  5  6  7  8  9 10  5  6  7  8  9 10  1  1  1  1  1  1
TYPE ASSIGNMENTS      1  1  1  1  2  3  4  2  3  4  2  3  4  2  3  4  5  6  7  8
TYPE ASSIGNMENTS      9 10  5  6  7  8  9 10
EXPONENTS  0.1000000D-03 0.3000000D-03 0.9000000D-03 0.2700000D-02 0.8100000D-02
EXPONENTS  0.2430000D-01 0.7290000D-01 0.2187000D+00 0.6561000D+00 0.1968300D+01
EXPONENTS  0.1000000D-03 0.1000000D-03 0.1000000D-03 0.3000000D-03 0.3000000D-03
EXPONENTS  0.3000000D-03 0.9000000D-03 0.9000000D-03 0.9000000D-03 0.2700000D-02
EXPONENTS  0.2700000D-02 0.2700000D-02 0.1000000D-03 0.1000000D-03 0.1000000D-03
EXPONENTS  0.1000000D-03 0.1000000D-03 0.1000000D-03 0.3000000D-03 0.3000000D-03
EXPONENTS  0.3000000D-03 0.3000000D-03 0.3000000D-03 0.3000000D-03 0.1000000D-03
EXPONENTS  0.3000000D-03 0.9000000D-03 0.2700000D-02 0.8100000D-02 0.2430000D-01
EXPONENTS  0.7290000D-01 0.2187000D+00 0.6561000D+00 0.1968300D+01 0.1000000D-03
EXPONENTS  0.1000000D-03 0.1000000D-03 0.3000000D-03 0.3000000D-03 0.3000000D-03
EXPONENTS  0.9000000D-03 0.9000000D-03 0.9000000D-03 0.2700000D-02 0.2700000D-02
EXPONENTS  0.2700000D-02 0.1000000D-03 0.1000000D-03 0.1000000D-03 0.1000000D-03
EXPONENTS  0.1000000D-03 0.1000000D-03 0.3000000D-03 0.3000000D-03 0.3000000D-03
EXPONENTS  0.3000000D-03 0.3000000D-03 0.3000000D-03
MO    1     MO 0.0        OCC NO =    1.0000000  ORB. ENERGY =   -0.003887
 -0.32527550D-04  0.56806412D-04  0.40093136D-04  0.17003635D-02  0.57183814D-02
  0.86384229D-02  0.12224302D-01 -0.22510017D-01 -0.35065259D-02  0.11106796D-03
  0.20912164D-05  0.00000000D+00 -0.00000000D+00 -0.27707511D-05  0.00000000D+00
 -0.00000000D+00  0.82716747D-05  0.00000000D+00  0.00000000D+00  0.14831432D-04
  0.00000000D+00 -0.00000000D+00  0.77859620D-08 -0.23039133D-09 -0.23039133D-09
  0.00000000D+00 -0.00000000D+00  0.00000000D+00 -0.30024385D-07 -0.63781311D-08
 -0.63781311D-08  0.00000000D+00 -0.00000000D+00 -0.00000000D+00 -0.32527550D-04
  0.56806412D-04  0.40093136D-04  0.17003635D-02  0.57183814D-02  0.86384229D-02
  0.12224302D-01 -0.22510017D-01 -0.35065259D-02  0.11106796D-03 -0.20912164D-05
 -0.00000000D+00  0.00000000D+00  0.27707511D-05 -0.00000000D+00  0.00000000D+00
 -0.82716747D-05 -0.00000000D+00 -0.00000000D+00 -0.14831432D-04 -0.00000000D+00
 -0.00000000D+00  0.77859620D-08 -0.23039133D-09 -0.23039133D-09  0.00000000D+00
 -0.00000000D+00 -0.00000000D+00 -0.30024385D-07 -0.63781311D-08 -0.63781311D-08
  0.00000000D+00 -0.00000000D+00  0.00000000D+00
MO    2     MO 0.0        OCC NO =    0.0000000  ORB. ENERGY =   -0.003551
 -0.63606112D-06 -0.69401370D-05 -0.54030752D-04 -0.22728783D-02 -0.54901824D-02
 -0.94395671D-02 -0.12409576D-01  0.23218496D-01  0.37706610D-02 -0.16436352D-03
  0.57629222D-07 -0.00000000D+00  0.00000000D+00  0.55564385D-06  0.00000000D+00
 -0.00000000D+00 -0.72323318D-05  0.00000000D+00  0.00000000D+00 -0.39463502D-04
 -0.00000000D+00  0.00000000D+00  0.10595496D-08  0.34539196D-09  0.34539196D-09
 -0.00000000D+00  0.00000000D+00 -0.00000000D+00  0.12331811D-07  0.17168263D-07
  0.17168263D-07  0.00000000D+00 -0.00000000D+00  0.00000000D+00  0.63606112D-06
  0.69401370D-05  0.54030752D-04  0.22728783D-02  0.54901824D-02  0.94395671D-02
  0.12409576D-01 -0.23218496D-01 -0.37706610D-02  0.16436352D-03  0.57629222D-07
  0.00000000D+00 -0.00000000D+00  0.55564385D-06 -0.00000000D+00  0.00000000D+00
 -0.72323318D-05  0.00000000D+00 -0.00000000D+00 -0.39463502D-04 -0.00000000D+00
  0.00000000D+00 -0.10595496D-08 -0.34539196D-09 -0.34539196D-09 -0.00000000D+00
  0.00000000D+00  0.00000000D+00 -0.12331811D-07 -0.17168263D-07 -0.17168263D-07
  0.00000000D+00 -0.00000000D+00 -0.00000000D+00
MO    3     MO 0.0        OCC NO =    0.0000000  ORB. ENERGY =    0.004203
  0.48310797D-03  0.11216428D-03 -0.37781486D-02  0.56052587D-02  0.11280069D-02
  0.49476546D-02  0.37201668D-02 -0.80475653D-02 -0.17523849D-02  0.19726465D-03
 -0.19048612D-04 -0.00000000D+00 -0.00000000D+00  0.23629206D-04  0.00000000D+00
  0.00000000D+00 -0.10531044D-03 -0.00000000D+00 -0.00000000D+00  0.40453721D-04
  0.00000000D+00  0.00000000D+00 -0.76366271D-07 -0.42403464D-08 -0.42403464D-08
 -0.00000000D+00 -0.00000000D+00  0.00000000D+00  0.76115632D-07 -0.99311445D-07
 -0.99311445D-07  0.00000000D+00  0.00000000D+00 -0.00000000D+00  0.48310797D-03
  0.11216428D-03 -0.37781486D-02  0.56052587D-02  0.11280069D-02  0.49476546D-02
  0.37201668D-02 -0.80475653D-02 -0.17523849D-02  0.19726465D-03  0.19048612D-04
  0.00000000D+00  0.00000000D+00 -0.23629206D-04 -0.00000000D+00 -0.00000000D+00
  0.10531044D-03  0.00000000D+00  0.00000000D+00 -0.40453721D-04 -0.00000000D+00
 -0.00000000D+00 -0.76366271D-07 -0.42403464D-08 -0.42403464D-08 -0.00000000D+00
 -0.00000000D+00 -0.00000000D+00  0.76115632D-07 -0.99311445D-07 -0.99311445D-07
  0.00000000D+00  0.00000000D+00  0.00000000D+00
MO    4     MO 0.0        OCC NO =    0.0000000  ORB. ENERGY =    0.006239
  0.00000000D+00 -0.00000000D+00  0.00000000D+00 -0.00000000D+00 -0.00000000D+00
  0.00000000D+00 -0.00000000D+00  0.00000000D+00 -0.00000000D+00 -0.00000000D+00
 -0.00000000D+00  0.37694137D-06 -0.10488972D-06  0.00000000D+00 -0.45816872D-05
  0.12749239D-05 -0.00000000D+00  0.62722456D-04 -0.17453477D-04  0.00000000D+00
  0.34683597D-03 -0.96512383D-04 -0.00000000D+00  0.00000000D+00  0.00000000D+00
 -0.27440786D-08  0.76358124D-09  0.00000000D+00  0.00000000D+00  0.00000000D+00
  0.00000000D+00  0.66448395D-07 -0.18490281D-07  0.00000000D+00  0.00000000D+00
 -0.00000000D+00  0.00000000D+00  0.00000000D+00 -0.00000000D+00  0.00000000D+00
  0.00000000D+00 -0.00000000D+00  0.00000000D+00 -0.00000000D+00  0.00000000D+00
  0.37694137D-06 -0.10488972D-06 -0.00000000D+00 -0.45816872D-05  0.12749239D-05
  0.00000000D+00  0.62722456D-04 -0.17453477D-04 -0.00000000D+00  0.34683597D-03
 -0.96512383D-04 -0.00000000D+00  0.00000000D+00 -0.00000000D+00  0.27440786D-08
 -0.76358124D-09 -0.00000000D+00  0.00000000D+00 -0.00000000D+00 -0.00000000D+00
 -0.66448395D-07  0.18490281D-07  0.00000000D+00
MO    5     MO 0.0        OCC NO =    0.0000000  ORB. ENERGY =    0.006239
 -0.00000000D+00  0.00000000D+00 -0.00000000D+00 -0.00000000D+00  0.00000000D+00
 -0.00000000D+00  0.00000000D+00 -0.00000000D+00  0.00000000D+00 -0.00000000D+00
  0.00000000D+00 -0.10488972D-06 -0.37694137D-06 -0.00000000D+00  0.12749239D-05
  0.45816872D-05  0.00000000D+00 -0.17453477D-04 -0.62722456D-04 -0.00000000D+00
 -0.96512383D-04 -0.34683597D-03  0.00000000D+00  0.00000000D+00  0.00000000D+00
  0.76358124D-09  0.27440786D-08 -0.00000000D+00 -0.00000000D+00 -0.00000000D+00
 -0.00000000D+00 -0.18490281D-07 -0.66448395D-07  0.00000000D+00 -0.00000000D+00
  0.00000000D+00  0.00000000D+00 -0.00000000D+00  0.00000000D+00 -0.00000000D+00
  0.00000000D+00  0.00000000D+00  0.00000000D+00 -0.00000000D+00 -0.00000000D+00
 -0.10488972D-06 -0.37694137D-06  0.00000000D+00  0.12749239D-05  0.45816872D-05
 -0.00000000D+00 -0.17453477D-04 -0.62722456D-04  0.00000000D+00 -0.96512383D-04
 -0.34683597D-03  0.00000000D+00 -0.00000000D+00 -0.00000000D+00 -0.76358124D-09
 -0.27440786D-08  0.00000000D+00 -0.00000000D+00 -0.00000000D+00 -0.00000000D+00
  0.18490281D-07  0.66448395D-07 -0.00000000D+00
MO    6     MO 0.0        OCC NO =    0.0000000  ORB. ENERGY =    0.008608
 -0.00000000D+00 -0.00000000D+00 -0.00000000D+00 -0.00000000D+00  0.00000000D+00
  0.00000000D+00  0.00000000D+00 -0.00000000D+00  0.00000000D+00 -0.00000000D+00
  0.00000000D+00  0.82428422D-06  0.34679721D-05 -0.00000000D+00  0.16690369D-06
  0.70220628D-06  0.00000000D+00  0.34482974D-05  0.14507861D-04 -0.00000000D+00
  0.14931289D-03  0.62819704D-03  0.00000000D+00 -0.00000000D+00 -0.00000000D+00
  0.28904911D-08  0.12161027D-07  0.00000000D+00 -0.00000000D+00 -0.00000000D+00
 -0.00000000D+00  0.76513619D-08  0.32191223D-07  0.00000000D+00  0.00000000D+00
  0.00000000D+00  0.00000000D+00  0.00000000D+00 -0.00000000D+00  0.00000000D+00
 -0.00000000D+00  0.00000000D+00 -0.00000000D+00  0.00000000D+00 -0.00000000D+00
 -0.82428422D-06 -0.34679721D-05 -0.00000000D+00 -0.16690369D-06 -0.70220628D-06
 -0.00000000D+00 -0.34482974D-05 -0.14507861D-04 -0.00000000D+00 -0.14931289D-03
 -0.62819704D-03  0.00000000D+00  0.00000000D+00  0.00000000D+00  0.28904911D-08
  0.12161027D-07 -0.00000000D+00  0.00000000D+00  0.00000000D+00 -0.00000000D+00
  0.76513619D-08  0.32191223D-07 -0.00000000D+00
MO    7     MO 0.0        OCC NO =    0.0000000  ORB. ENERGY =    0.008608
  0.00000000D+00 -0.00000000D+00  0.00000000D+00  0.00000000D+00 -0.00000000D+00
 -0.00000000D+00 -0.00000000D+00 -0.00000000D+00  0.00000000D+00 -0.00000000D+00
 -0.00000000D+00 -0.34679721D-05  0.82428422D-06 -0.00000000D+00 -0.70220628D-06
  0.16690369D-06 -0.00000000D+00 -0.14507861D-04  0.34482974D-05  0.00000000D+00
 -0.62819704D-03  0.14931289D-03 -0.00000000D+00  0.00000000D+00 -0.00000000D+00
 -0.12161027D-07  0.28904911D-08 -0.00000000D+00 -0.00000000D+00  0.00000000D+00
  0.00000000D+00 -0.32191223D-07  0.76513619D-08  0.00000000D+00  0.00000000D+00
  0.00000000D+00 -0.00000000D+00  0.00000000D+00 -0.00000000D+00 -0.00000000D+00
 -0.00000000D+00  0.00000000D+00 -0.00000000D+00  0.00000000D+00  0.00000000D+00
  0.34679721D-05 -0.82428422D-06 -0.00000000D+00  0.70220628D-06 -0.16690369D-06
  0.00000000D+00  0.14507861D-04 -0.34482974D-05 -0.00000000D+00  0.62819704D-03
 -0.14931289D-03 -0.00000000D+00  0.00000000D+00  0.00000000D+00 -0.12161027D-07
  0.28904911D-08  0.00000000D+00  0.00000000D+00  0.00000000D+00  0.00000000D+00
 -0.32191223D-07  0.76513619D-08  0.00000000D+00
MO    8     MO 0.0        OCC NO =    0.0000000  ORB. ENERGY =    0.009399
 -0.20534741D-04  0.34456018D-05  0.94070384D-02  0.16100220D-02 -0.10909397D-01
 -0.89082683D-03 -0.80743980D-02  0.12128051D-01  0.86616229D-03  0.28434961D-03
  0.19962813D-05 -0.00000000D+00 -0.00000000D+00 -0.13619201D-05  0.00000000D+00
  0.00000000D+00  0.21747509D-03 -0.00000000D+00 -0.00000000D+00  0.29209161D-03
  0.00000000D+00  0.00000000D+00  0.17447088D-07  0.29854159D-07  0.29854159D-07
 -0.00000000D+00 -0.00000000D+00 -0.00000000D+00  0.29573601D-06  0.13753369D-06
  0.13753369D-06 -0.00000000D+00  0.00000000D+00  0.00000000D+00  0.20534741D-04
 -0.34456018D-05 -0.94070384D-02 -0.16100220D-02  0.10909397D-01  0.89082683D-03
  0.80743980D-02 -0.12128051D-01 -0.86616229D-03 -0.28434961D-03  0.19962813D-05
  0.00000000D+00  0.00000000D+00 -0.13619201D-05 -0.00000000D+00 -0.00000000D+00
  0.21747509D-03  0.00000000D+00  0.00000000D+00  0.29209161D-03 -0.00000000D+00
 -0.00000000D+00 -0.17447088D-07 -0.29854159D-07 -0.29854159D-07 -0.00000000D+00
 -0.00000000D+00 -0.00000000D+00 -0.29573601D-06 -0.13753369D-06 -0.13753369D-06
 -0.00000000D+00  0.00000000D+00  0.00000000D+00
MO    9     MO 0.0        OCC NO =    0.0000000  ORB. ENERGY =    0.009740
  0.27577473D-03 -0.45392734D-03 -0.17635937D-02  0.86000476D-02 -0.10186338D-01
  0.23093359D-02 -0.60599154D-02  0.75283260D-02 -0.21376871D-03  0.42039542D-03
 -0.20665032D-04  0.00000000D+00 -0.00000000D+00  0.22290175D-04 -0.00000000D+00
 -0.00000000D+00 -0.11596222D-03  0.00000000D+00 -0.00000000D+00  0.63834040D-03
 -0.00000000D+00 -0.00000000D+00 -0.74901577D-07  0.37867696D-08  0.37867696D-08
  0.00000000D+00 -0.00000000D+00  0.00000000D+00  0.25054757D-06  0.89083264D-07
  0.89083264D-07 -0.00000000D+00 -0.00000000D+00 -0.00000000D+00  0.27577473D-03
 -0.45392734D-03 -0.17635937D-02  0.86000476D-02 -0.10186338D-01  0.23093359D-02
 -0.60599154D-02  0.75283260D-02 -0.21376871D-03  0.42039542D-03  0.20665032D-04
 -0.00000000D+00  0.00000000D+00 -0.22290175D-04  0.00000000D+00  0.00000000D+00
  0.11596222D-03 -0.00000000D+00 -0.00000000D+00 -0.63834040D-03  0.00000000D+00
 -0.00000000D+00 -0.74901577D-07  0.37867696D-08  0.37867696D-08  0.00000000D+00
 -0.00000000D+00 -0.00000000D+00  0.25054757D-06  0.89083264D-07  0.89083264D-07
 -0.00000000D+00 -0.00000000D+00  0.00000000D+00
MO   10     MO 0.0        OCC NO =    0.0000000  ORB. ENERGY =    0.013456
  0.00000000D+00  0.00000000D+00 -0.00000000D+00 -0.00000000D+00  0.00000000D+00
 -0.00000000D+00  0.00000000D+00 -0.00000000D+00  0.00000000D+00  0.00000000D+00
 -0.00000000D+00 -0.66251062D-06 -0.75458590D-06 -0.00000000D+00  0.85651251D-05
  0.97554985D-05 -0.00000000D+00 -0.14332043D-03 -0.16323898D-03 -0.00000000D+00
  0.54231024D-03  0.61768007D-03 -0.00000000D+00  0.00000000D+00  0.00000000D+00
  0.28250048D-08  0.32176200D-08  0.00000000D+00 -0.00000000D+00  0.00000000D+00
  0.00000000D+00 -0.99960042D-07 -0.11385241D-06 -0.00000000D+00  0.00000000D+00
  0.00000000D+00  0.00000000D+00 -0.00000000D+00  0.00000000D+00  0.00000000D+00
  0.00000000D+00 -0.00000000D+00 -0.00000000D+00  0.00000000D+00  0.00000000D+00
 -0.66251062D-06 -0.75458590D-06  0.00000000D+00  0.85651251D-05  0.97554985D-05
 -0.00000000D+00 -0.14332043D-03 -0.16323898D-03 -0.00000000D+00  0.54231024D-03
  0.61768007D-03 -0.00000000D+00 -0.00000000D+00 -0.00000000D+00 -0.28250048D-08
 -0.32176200D-08 -0.00000000D+00 -0.00000000D+00 -0.00000000D+00 -0.00000000D+00
  0.99960042D-07  0.11385241D-06  0.00000000D+00
MO   11     MO 0.0        OCC NO =    0.0000000  ORB. ENERGY =    0.013456
  0.00000000D+00  0.00000000D+00 -0.00000000D+00  0.00000000D+00 -0.00000000D+00
  0.00000000D+00 -0.00000000D+00  0.00000000D+00 -0.00000000D+00 -0.00000000D+00
 -0.00000000D+00 -0.75458590D-06  0.66251062D-06  0.00000000D+00  0.97554985D-05
 -0.85651251D-05 -0.00000000D+00 -0.16323898D-03  0.14332043D-03 -0.00000000D+00
  0.61768007D-03 -0.54231024D-03 -0.00000000D+00  0.00000000D+00 -0.00000000D+00
  0.32176200D-08 -0.28250048D-08 -0.00000000D+00  0.00000000D+00  0.00000000D+00
  0.00000000D+00 -0.11385241D-06  0.99960042D-07  0.00000000D+00  0.00000000D+00
  0.00000000D+00  0.00000000D+00  0.00000000D+00 -0.00000000D+00 -0.00000000D+00
 -0.00000000D+00  0.00000000D+00 -0.00000000D+00  0.00000000D+00  0.00000000D+00
 -0.75458590D-06  0.66251062D-06  0.00000000D+00  0.97554985D-05 -0.85651251D-05
 -0.00000000D+00 -0.16323898D-03  0.14332043D-03  0.00000000D+00  0.61768007D-03
 -0.54231024D-03 -0.00000000D+00  0.00000000D+00  0.00000000D+00 -0.32176200D-08
  0.28250048D-08  0.00000000D+00  0.00000000D+00  0.00000000D+00  0.00000000D+00
  0.11385241D-06 -0.99960042D-07 -0.00000000D+00
MO   12     MO 0.0        OCC NO =    0.0000000  ORB. ENERGY =    0.013793
  0.13870970D-03 -0.19495313D-03 -0.11016715D-02  0.12664833D-01 -0.17237107D-01
 -0.33389211D-03 -0.98593701D-02  0.14422699D-01  0.88352606D-03  0.38904579D-03
 -0.12010612D-04  0.00000000D+00 -0.00000000D+00  0.69336174D-05 -0.00000000D+00
  0.00000000D+00 -0.72791548D-04  0.00000000D+00 -0.00000000D+00 -0.15750741D-03
 -0.00000000D+00  0.00000000D+00 -0.42245066D-07  0.27653050D-08  0.27653050D-08
  0.00000000D+00 -0.00000000D+00 -0.00000000D+00  0.83952240D-07  0.70158756D-07
  0.70158756D-07 -0.00000000D+00  0.00000000D+00 -0.00000000D+00  0.13870970D-03
 -0.19495313D-03 -0.11016715D-02  0.12664833D-01 -0.17237107D-01 -0.33389211D-03
 -0.98593701D-02  0.14422699D-01  0.88352606D-03  0.38904579D-03  0.12010612D-04
 -0.00000000D+00  0.00000000D+00 -0.69336174D-05  0.00000000D+00 -0.00000000D+00
  0.72791548D-04  0.00000000D+00 -0.00000000D+00  0.15750741D-03 -0.00000000D+00
  0.00000000D+00 -0.42245066D-07  0.27653050D-08  0.27653050D-08  0.00000000D+00
 -0.00000000D+00  0.00000000D+00  0.83952240D-07  0.70158756D-07  0.70158756D-07
 -0.00000000D+00  0.00000000D+00  0.00000000D+00
MO   13     MO 0.0        OCC NO =    0.0000000  ORB. ENERGY =    0.014349
 -0.97184803D-05 -0.60415174D-04  0.33651955D-03  0.11885683D-02 -0.12688864D-02
  0.31563783D-02 -0.23321623D-04 -0.16081263D-02 -0.89267036D-03  0.21331254D-03
  0.90425390D-06 -0.00000000D+00 -0.00000000D+00  0.41055434D-05 -0.00000000D+00
  0.00000000D+00 -0.42011920D-04  0.00000000D+00 -0.00000000D+00  0.93340365D-03
  0.00000000D+00  0.00000000D+00  0.13122503D-07  0.92670687D-08  0.92670687D-08
 -0.00000000D+00 -0.00000000D+00  0.00000000D+00  0.15802042D-06  0.17161873D-06
  0.17161873D-06 -0.00000000D+00  0.00000000D+00 -0.00000000D+00  0.97184803D-05
  0.60415174D-04 -0.33651955D-03 -0.11885683D-02  0.12688864D-02 -0.31563783D-02
  0.23321623D-04  0.16081263D-02  0.89267036D-03 -0.21331254D-03  0.90425390D-06
  0.00000000D+00  0.00000000D+00  0.41055434D-05  0.00000000D+00 -0.00000000D+00
 -0.42011920D-04 -0.00000000D+00  0.00000000D+00  0.93340365D-03  0.00000000D+00
 -0.00000000D+00 -0.13122503D-07 -0.92670687D-08 -0.92670687D-08 -0.00000000D+00
 -0.00000000D+00 -0.00000000D+00 -0.15802042D-06 -0.17161873D-06 -0.17161873D-06
 -0.00000000D+00  0.00000000D+00  0.00000000D+00
MO   14     MO 0.0        OCC NO =    0.0000000  ORB. ENERGY =    0.018092
  0.12593342D-04 -0.86305252D-04 -0.16829643D-01  0.23484890D-01 -0.23421568D-01
  0.23511122D-02 -0.10927849D-01  0.14568985D-01  0.24293693D-03  0.60597058D-03
 -0.12893731D-05  0.00000000D+00  0.00000000D+00  0.56168387D-05 -0.00000000D+00
 -0.00000000D+00 -0.42997146D-03  0.00000000D+00  0.00000000D+00  0.20297181D-03
 -0.00000000D+00 -0.00000000D+00 -0.36769750D-08 -0.25024709D-07 -0.25024709D-07
  0.00000000D+00  0.00000000D+00 -0.00000000D+00 -0.18588511D-06  0.45605631D-07
  0.45605631D-07 -0.00000000D+00 -0.00000000D+00  0.00000000D+00 -0.12593342D-04
  0.86305252D-04  0.16829643D-01 -0.23484890D-01  0.23421568D-01 -0.23511122D-02
  0.10927849D-01 -0.14568985D-01 -0.24293693D-03 -0.60597058D-03 -0.12893731D-05
 -0.00000000D+00 -0.00000000D+00  0.56168387D-05  0.00000000D+00  0.00000000D+00
 -0.42997146D-03 -0.00000000D+00 -0.00000000D+00  0.20297181D-03  0.00000000D+00
  0.00000000D+00  0.36769750D-08  0.25024709D-07  0.25024709D-07  0.00000000D+00
  0.00000000D+00  0.00000000D+00  0.18588511D-06 -0.45605631D-07 -0.45605631D-07
 -0.00000000D+00 -0.00000000D+00 -0.00000000D+00
MO   15     MO 0.0        OCC NO =    0.0000000  ORB. ENERGY =    0.019823
 -0.00000000D+00 -0.00000000D+00  0.00000000D+00 -0.00000000D+00  0.00000000D+00
  0.00000000D+00  0.00000000D+00 -0.00000000D+00 -0.00000000D+00 -0.00000000D+00
  0.00000000D+00  0.54026188D-04  0.87071076D-04 -0.00000000D+00 -0.47143312D-04
 -0.75978318D-04  0.00000000D+00  0.20393904D-03  0.32867749D-03  0.00000000D+00
 -0.38398144D-03 -0.61884206D-03  0.00000000D+00 -0.00000000D+00 -0.00000000D+00
  0.19909457D-06  0.32086992D-06  0.00000000D+00 -0.00000000D+00 -0.00000000D+00
 -0.00000000D+00 -0.32500678D-06 -0.52379578D-06 -0.00000000D+00  0.00000000D+00
  0.00000000D+00 -0.00000000D+00  0.00000000D+00 -0.00000000D+00  0.00000000D+00
 -0.00000000D+00  0.00000000D+00 -0.00000000D+00  0.00000000D+00 -0.00000000D+00
 -0.54026188D-04 -0.87071076D-04 -0.00000000D+00  0.47143312D-04  0.75978318D-04
  0.00000000D+00 -0.20393904D-03 -0.32867749D-03 -0.00000000D+00  0.38398144D-03
  0.61884206D-03  0.00000000D+00  0.00000000D+00  0.00000000D+00  0.19909457D-06
  0.32086992D-06 -0.00000000D+00  0.00000000D+00  0.00000000D+00  0.00000000D+00
 -0.32500678D-06 -0.52379578D-06  0.00000000D+00
MO   16     MO 0.0        OCC NO =    0.0000000  ORB. ENERGY =    0.019823
  0.00000000D+00  0.00000000D+00  0.00000000D+00 -0.00000000D+00  0.00000000D+00
  0.00000000D+00  0.00000000D+00 -0.00000000D+00  0.00000000D+00 -0.00000000D+00
 -0.00000000D+00  0.87071076D-04 -0.54026188D-04  0.00000000D+00 -0.75978318D-04
  0.47143312D-04 -0.00000000D+00  0.32867749D-03 -0.20393904D-03  0.00000000D+00
 -0.61884206D-03  0.38398144D-03 -0.00000000D+00  0.00000000D+00  0.00000000D+00
  0.32086992D-06 -0.19909457D-06  0.00000000D+00  0.00000000D+00  0.00000000D+00
  0.00000000D+00 -0.52379578D-06  0.32500678D-06 -0.00000000D+00 -0.00000000D+00
 -0.00000000D+00  0.00000000D+00 -0.00000000D+00  0.00000000D+00 -0.00000000D+00
  0.00000000D+00 -0.00000000D+00 -0.00000000D+00  0.00000000D+00  0.00000000D+00
 -0.87071076D-04  0.54026188D-04  0.00000000D+00  0.75978318D-04 -0.47143312D-04
  0.00000000D+00 -0.32867749D-03  0.20393904D-03 -0.00000000D+00  0.61884206D-03
 -0.38398144D-03 -0.00000000D+00  0.00000000D+00 -0.00000000D+00  0.32086992D-06
 -0.19909457D-06 -0.00000000D+00 -0.00000000D+00  0.00000000D+00  0.00000000D+00
 -0.52379578D-06  0.32500678D-06  0.00000000D+00
MO   17     MO 0.0        OCC NO =    0.0000000  ORB. ENERGY =    0.024523
  0.92541109D-03 -0.23860079D-02  0.67228313D-02 -0.10336536D-01  0.83529898D-02
  0.19596078D-02  0.31644705D-02 -0.55575100D-02 -0.80397068D-03 -0.44057668D-05
 -0.65650306D-04  0.00000000D+00 -0.00000000D+00  0.68906617D-04 -0.00000000D+00
  0.00000000D+00 -0.27126227D-03 -0.00000000D+00  0.00000000D+00  0.54964044D-03
  0.00000000D+00 -0.00000000D+00 -0.24171339D-06  0.10064668D-07  0.10064668D-07
  0.00000000D+00 -0.00000000D+00 -0.00000000D+00  0.88485559D-06  0.34485850D-06
  0.34485850D-06 -0.00000000D+00  0.00000000D+00  0.00000000D+00  0.92541109D-03
 -0.23860079D-02  0.67228313D-02 -0.10336536D-01  0.83529898D-02  0.19596078D-02
  0.31644705D-02 -0.55575100D-02 -0.80397068D-03 -0.44057668D-05  0.65650306D-04
 -0.00000000D+00  0.00000000D+00 -0.68906617D-04  0.00000000D+00 -0.00000000D+00
  0.27126227D-03  0.00000000D+00 -0.00000000D+00 -0.54964044D-03 -0.00000000D+00
  0.00000000D+00 -0.24171339D-06  0.10064668D-07  0.10064668D-07  0.00000000D+00
 -0.00000000D+00  0.00000000D+00  0.88485559D-06  0.34485850D-06  0.34485850D-06
 -0.00000000D+00  0.00000000D+00 -0.00000000D+00
MO   18     MO 0.0        OCC NO =    0.0000000  ORB. ENERGY =    0.026806
  0.48136897D-04  0.55640657D-03  0.65597173D-02  0.18055082D-02 -0.15976848D-02
 -0.13572161D-02 -0.67233647D-03  0.16227912D-02  0.39789119D-03 -0.50500509D-04
 -0.43617437D-05 -0.00000000D+00 -0.00000000D+00 -0.41700387D-04  0.00000000D+00
  0.00000000D+00  0.74956416D-03 -0.00000000D+00 -0.00000000D+00 -0.71969530D-03
  0.00000000D+00 -0.00000000D+00 -0.79377719D-07 -0.31909823D-07 -0.31909823D-07
 -0.00000000D+00 -0.00000000D+00 -0.00000000D+00 -0.94382167D-06 -0.12154396D-05
 -0.12154396D-05  0.00000000D+00  0.00000000D+00  0.00000000D+00 -0.48136897D-04
 -0.55640657D-03 -0.65597173D-02 -0.18055082D-02  0.15976848D-02  0.13572161D-02
  0.67233647D-03 -0.16227912D-02 -0.39789119D-03  0.50500509D-04 -0.43617437D-05
  0.00000000D+00  0.00000000D+00 -0.41700387D-04 -0.00000000D+00 -0.00000000D+00
  0.74956416D-03  0.00000000D+00  0.00000000D+00 -0.71969530D-03  0.00000000D+00
 -0.00000000D+00  0.79377719D-07  0.31909823D-07  0.31909823D-07 -0.00000000D+00
 -0.00000000D+00  0.00000000D+00  0.94382167D-06  0.12154396D-05  0.12154396D-05
  0.00000000D+00  0.00000000D+00 -0.00000000D+00
MO   19     MO 0.0        OCC NO =    0.0000000  ORB. ENERGY =    0.029507
 -0.37662115D-02 -0.37336194D-02  0.17728099D-01 -0.17775773D-01  0.84003649D-02
  0.50784357D-02  0.19891073D-02 -0.54668291D-02 -0.15840467D-02  0.24813231D-03
  0.64526568D-04  0.00000000D+00  0.00000000D+00 -0.12475877D-03 -0.00000000D+00
 -0.00000000D+00  0.80970072D-04  0.00000000D+00  0.00000000D+00 -0.20207212D-03
 -0.00000000D+00  0.00000000D+00  0.33802216D-06  0.87920297D-07  0.87920297D-07
  0.00000000D+00  0.00000000D+00 -0.00000000D+00  0.67012841D-06  0.18836371D-05
  0.18836371D-05 -0.00000000D+00 -0.00000000D+00  0.00000000D+00 -0.37662115D-02
 -0.37336194D-02  0.17728099D-01 -0.17775773D-01  0.84003649D-02  0.50784357D-02
  0.19891073D-02 -0.54668291D-02 -0.15840467D-02  0.24813231D-03 -0.64526568D-04
 -0.00000000D+00 -0.00000000D+00  0.12475877D-03  0.00000000D+00  0.00000000D+00
 -0.80970072D-04 -0.00000000D+00 -0.00000000D+00  0.20207212D-03  0.00000000D+00
  0.00000000D+00  0.33802216D-06  0.87920297D-07  0.87920297D-07  0.00000000D+00
  0.00000000D+00  0.00000000D+00  0.67012841D-06  0.18836371D-05  0.18836371D-05
 -0.00000000D+00 -0.00000000D+00  0.00000000D+00
MO   20     MO 0.0        OCC NO =    0.0000000  ORB. ENERGY =    0.038527
 -0.43283172D-03 -0.70106621D-03  0.16302124D-01 -0.10333166D-01 -0.98612268D-03
  0.13784718D-01 -0.19293294D-02 -0.38299862D-02 -0.32659218D-02  0.85509774D-03
  0.39721940D-04 -0.00000000D+00 -0.00000000D+00  0.17140086D-04  0.00000000D+00
  0.00000000D+00 -0.19141186D-03 -0.00000000D+00 -0.00000000D+00  0.20894838D-03
  0.00000000D+00  0.00000000D+00  0.62419423D-06  0.59844866D-06  0.59844866D-06
 -0.00000000D+00 -0.00000000D+00  0.00000000D+00  0.47034064D-05  0.44687573D-05
  0.44687573D-05  0.00000000D+00  0.00000000D+00 -0.00000000D+00  0.43283172D-03
  0.70106621D-03 -0.16302124D-01  0.10333166D-01  0.98612268D-03 -0.13784718D-01
  0.19293294D-02  0.38299862D-02  0.32659218D-02 -0.85509774D-03  0.39721940D-04
  0.00000000D+00  0.00000000D+00  0.17140086D-04 -0.00000000D+00 -0.00000000D+00
 -0.19141186D-03  0.00000000D+00  0.00000000D+00  0.20894838D-03 -0.00000000D+00
 -0.00000000D+00 -0.62419423D-06 -0.59844866D-06 -0.59844866D-06 -0.00000000D+00
 -0.00000000D+00 -0.00000000D+00 -0.47034064D-05 -0.44687573D-05 -0.44687573D-05
  0.00000000D+00  0.00000000D+00  0.00000000D+00
MO   21     MO 0.0        OCC NO =    0.0000000  ORB. ENERGY =    0.039962
 -0.00000000D+00  0.00000000D+00  0.00000000D+00 -0.00000000D+00 -0.00000000D+00
  0.00000000D+00 -0.00000000D+00 -0.00000000D+00 -0.00000000D+00  0.00000000D+00
  0.00000000D+00  0.00000000D+00 -0.00000000D+00  0.00000000D+00 -0.00000000D+00
  0.00000000D+00 -0.00000000D+00  0.00000000D+00 -0.00000000D+00  0.00000000D+00
 -0.00000000D+00 -0.00000000D+00  0.00000000D+00  0.47489040D-07 -0.47489040D-07
  0.00000000D+00 -0.00000000D+00  0.14783507D-07  0.00000000D+00 -0.63735917D-06
  0.63735917D-06 -0.00000000D+00  0.00000000D+00 -0.19841215D-06 -0.00000000D+00
  0.00000000D+00 -0.00000000D+00  0.00000000D+00  0.00000000D+00 -0.00000000D+00
  0.00000000D+00  0.00000000D+00  0.00000000D+00 -0.00000000D+00 -0.00000000D+00
 -0.00000000D+00  0.00000000D+00  0.00000000D+00  0.00000000D+00 -0.00000000D+00
 -0.00000000D+00 -0.00000000D+00  0.00000000D+00  0.00000000D+00  0.00000000D+00
 -0.00000000D+00  0.00000000D+00  0.47489040D-07 -0.47489040D-07  0.00000000D+00
 -0.00000000D+00  0.14783507D-07 -0.00000000D+00 -0.63735917D-06  0.63735917D-06
 -0.00000000D+00  0.00000000D+00 -0.19841215D-06
MO   22     MO 0.0        OCC NO =    0.0000000  ORB. ENERGY =    0.039962
  0.00000000D+00  0.00000000D+00 -0.00000000D+00  0.00000000D+00  0.00000000D+00
 -0.00000000D+00  0.00000000D+00 -0.00000000D+00  0.00000000D+00 -0.00000000D+00
 -0.00000000D+00 -0.00000000D+00 -0.00000000D+00 -0.00000000D+00  0.00000000D+00
  0.00000000D+00  0.00000000D+00 -0.00000000D+00 -0.00000000D+00 -0.00000000D+00
  0.00000000D+00  0.00000000D+00 -0.00000000D+00  0.73917536D-08 -0.73917536D-08
 -0.00000000D+00 -0.00000000D+00 -0.94978079D-07 -0.00000000D+00 -0.99206081D-07
  0.99206081D-07  0.00000000D+00  0.00000000D+00  0.12747183D-05  0.00000000D+00
  0.00000000D+00  0.00000000D+00 -0.00000000D+00 -0.00000000D+00  0.00000000D+00
 -0.00000000D+00 -0.00000000D+00 -0.00000000D+00  0.00000000D+00  0.00000000D+00
  0.00000000D+00  0.00000000D+00  0.00000000D+00 -0.00000000D+00 -0.00000000D+00
  0.00000000D+00  0.00000000D+00  0.00000000D+00 -0.00000000D+00 -0.00000000D+00
 -0.00000000D+00  0.00000000D+00  0.73917536D-08 -0.73917536D-08 -0.00000000D+00
 -0.00000000D+00 -0.94978079D-07  0.00000000D+00 -0.99206081D-07  0.99206081D-07
  0.00000000D+00  0.00000000D+00  0.12747183D-05
MO   23     MO 0.0        OCC NO =    0.0000000  ORB. ENERGY =    0.042501
  0.22180232D-03 -0.10040341D-02  0.38319679D-02 -0.27205668D-02 -0.50309568D-02
  0.13341868D-01 -0.28720483D-02 -0.21284893D-02 -0.29541896D-02  0.83405191D-03
 -0.18624799D-04  0.00000000D+00  0.00000000D+00  0.10387373D-03 -0.00000000D+00
 -0.00000000D+00 -0.12574915D-03  0.00000000D+00  0.00000000D+00  0.13990619D-03
 -0.00000000D+00 -0.00000000D+00 -0.49662188D-06 -0.45737931D-06 -0.45737931D-06
  0.00000000D+00  0.00000000D+00 -0.00000000D+00  0.73345339D-07 -0.46356243D-06
 -0.46356243D-06 -0.00000000D+00 -0.00000000D+00 -0.00000000D+00 -0.22180232D-03
  0.10040341D-02 -0.38319679D-02  0.27205668D-02  0.50309568D-02 -0.13341868D-01
  0.28720483D-02  0.21284893D-02  0.29541896D-02 -0.83405191D-03 -0.18624799D-04
 -0.00000000D+00 -0.00000000D+00  0.10387373D-03  0.00000000D+00  0.00000000D+00
 -0.12574915D-03 -0.00000000D+00 -0.00000000D+00  0.13990619D-03  0.00000000D+00
  0.00000000D+00  0.49662188D-06  0.45737931D-06  0.45737931D-06  0.00000000D+00
  0.00000000D+00  0.00000000D+00 -0.73345339D-07  0.46356243D-06  0.46356243D-06
 -0.00000000D+00 -0.00000000D+00  0.00000000D+00
MO   24     MO 0.0        OCC NO =    0.0000000  ORB. ENERGY =    0.043276
 -0.11074319D-01  0.41059526D-02  0.12706332D-02 -0.22253682D-03  0.16253875D-02
 -0.35907337D-02  0.82612180D-03  0.49027428D-03  0.78519370D-03 -0.22515600D-03
  0.39224110D-03 -0.00000000D+00  0.00000000D+00 -0.12524411D-03  0.00000000D+00
 -0.00000000D+00  0.74160317D-04 -0.00000000D+00  0.00000000D+00 -0.76363351D-04
  0.00000000D+00 -0.00000000D+00  0.17299769D-05  0.15499328D-06  0.15499328D-06
 -0.00000000D+00  0.00000000D+00  0.00000000D+00 -0.12630857D-06  0.10749661D-05
  0.10749661D-05  0.00000000D+00 -0.00000000D+00 -0.00000000D+00 -0.11074319D-01
  0.41059526D-02  0.12706332D-02 -0.22253682D-03  0.16253875D-02 -0.35907337D-02
  0.82612180D-03  0.49027428D-03  0.78519370D-03 -0.22515600D-03 -0.39224110D-03
  0.00000000D+00 -0.00000000D+00  0.12524411D-03 -0.00000000D+00  0.00000000D+00