[Molden Format]
[Atoms] AU
E+       1       4     0.00000000     0.00000000     0.00000000
E+       2       4    59.40000000     0.00000000     0.00000000
[GTO]
  1 0
s  1 1.00
   1.0000000000E-04   1.0000000000E+00
s  1 1.00
   3.0000000000E-04   1.0000000000E+00
s  1 1.00
   9.0000000000E-04   1.0000000000E+00
s  1 1.00
   2.7000000000E-03   1.0000000000E+00
s  1 1.00
   8.1000000000E-03   1.0000000000E+00
s  1 1.00
   2.4300000000E-02   1.0000000000E+00
s  1 1.00
   7.2900000000E-02   1.0000000000E+00
s  1 1.00
   2.1870000000E-01   1.0000000000E+00
s  1 1.00
   6.5610000000E-01   1.0000000000E+00
s  1 1.00
   1.9683000000E+00   1.0000000000E+00
p  1 1.00
   1.0000000000E-04   1.0000000000E+00
p  1 1.00
   3.0000000000E-04   1.0000000000E+00
p  1 1.00
   9.0000000000E-04   1.0000000000E+00
p  1 1.00
   2.7000000000E-03   1.0000000000E+00
d  1 1.00
   1.0000000000E-04   1.0000000000E+00
d  1 1.00
   3.0000000000E-04   1.0000000000E+00
 
  2 0
s  1 1.00
   1.0000000000E-04   1.0000000000E+00
s  1 1.00
   3.0000000000E-04   1.0000000000E+00
s  1 1.00
   9.0000000000E-04   1.0000000000E+00
s  1 1.00
   2.7000000000E-03   1.0000000000E+00
s  1 1.00
   8.1000000000E-03   1.0000000000E+00
s  1 1.00
   2.4300000000E-02   1.0000000000E+00
s  1 1.00
   7.2900000000E-02   1.0000000000E+00
s  1 1.00
   2.1870000000E-01   1.0000000000E+00
s  1 1.00
   6.5610000000E-01   1.0000000000E+00
s  1 1.00
   1.9683000000E+00   1.0000000000E+00
p  1 1.00
   1.0000000000E-04   1.0000000000E+00
p  1 1.00
   3.0000000000E-04   1.0000000000E+00
p  1 1.00
   9.0000000000E-04   1.0000000000E+00
p  1 1.00
   2.7000000000E-03   1.0000000000E+00
d  1 1.00
   1.0000000000E-04   1.0000000000E+00
d  1 1.00
   3.0000000000E-04   1.0000000000E+00
 
 
[MO]
Ene=     5.06448E-03
Spin= Alpha
Occup=   1.0000000000
   1       0.48418978
   2       0.22890906
   3      -0.78380239
   4       0.23610585
   5      -0.13998213
   6      -0.04061023
   7      -0.04735836
   8       0.03458570
   9       0.00167291
  10       0.00006430
  11      -0.52497239
  12      -0.00000000
  13       0.00000000
  14       0.21000169
  15      -0.00000000
  16       0.00000000
  17      -0.40214808
  18       0.00000000
  19      -0.00000000
  20      -0.06600320
  21      -0.00000000
  22       0.00000000
  23      -0.28898475
  24      -0.02617588
  25      -0.02617588
  26      -0.00000000
  27       0.00000000
  28       0.00000000
  29      -0.07346014
  30      -0.09024514
  31      -0.09024514
  32      -0.00000000
  33       0.00000000
  34       0.00000000
  35       0.48418978
  36       0.22890906
  37      -0.78380239
  38       0.23610585
  39      -0.13998213
  40      -0.04061023
  41      -0.04735836
  42       0.03458570
  43       0.00167291
  44       0.00006430
  45       0.52497239
  46       0.00000000
  47      -0.00000000
  48      -0.21000169
  49       0.00000000
  50      -0.00000000
  51       0.40214808
  52      -0.00000000
  53       0.00000000
  54       0.06600320
  55       0.00000000
  56      -0.00000000
  57      -0.28898475
  58      -0.02617588
  59      -0.02617588
  60      -0.00000000
  61       0.00000000
  62      -0.00000000
  63      -0.07346014
  64      -0.09024514
  65      -0.09024514
  66      -0.00000000
  67       0.00000000
  68       0.00000000
Ene=     7.41910E-03
Spin= Alpha
Occup=   0.0000000000
   1       0.02022318
   2      -0.54093846
   3      -0.08878613
   4      -0.43081116
   5      -0.06892860
   6      -0.18728607
   7      -0.08471290
   8       0.07404630
   9       0.00602394
  10      -0.00021140
  11      -0.04522456
  12      -0.00000000
  13       0.00000000
  14      -0.42002263
  15       0.00000000
  16      -0.00000000
  17       0.11702866
  18      -0.00000000
  19       0.00000000
  20      -0.33436066
  21       0.00000000
  22      -0.00000000
  23      -0.03545894
  24      -0.02724712
  25      -0.02724712
  26      -0.00000000
  27       0.00000000
  28       0.00000000
  29      -0.19655469
  30      -0.07113129
  31      -0.07113129
  32       0.00000000
  33      -0.00000000
  34      -0.00000000
  35      -0.02022318
  36       0.54093846
  37       0.08878613
  38       0.43081116
  39       0.06892860
  40       0.18728607
  41       0.08471290
  42      -0.07404630
  43      -0.00602394
  44       0.00021140
  45      -0.04522456
  46       0.00000000
  47      -0.00000000
  48      -0.42002263
  49      -0.00000000
  50       0.00000000
  51       0.11702866
  52      -0.00000000
  53       0.00000000
  54      -0.33436066
  55       0.00000000
  56      -0.00000000
  57       0.03545894
  58       0.02724712
  59       0.02724712
  60      -0.00000000
  61       0.00000000
  62       0.00000000
  63       0.19655469
  64       0.07113129
  65       0.07113129
  66       0.00000000
  67      -0.00000000
  68      -0.00000000
Ene=     9.18186E-03
Spin= Alpha
Occup=   0.0000000000
   1      -0.31992436
   2      -0.04996628
   3       0.60239821
   4      -0.76598230
   5      -0.04659499
   6      -0.22228753
   7      -0.08753624
   8       0.07946420
   9       0.00697207
  10      -0.00029761
  11       0.53052480
  12       0.00000000
  13       0.00000000
  14      -0.21696425
  15       0.00000000
  16      -0.00000000
  17       0.48531545
  18      -0.00000000
  19      -0.00000000
  20      -0.34646274
  21       0.00000000
  22       0.00000000
  23       0.27023222
  24       0.00169138
  25       0.00169138
  26       0.00000000
  27       0.00000000
  28      -0.00000000
  29      -0.01693578
  30       0.00639767
  31       0.00639767
  32      -0.00000000
  33      -0.00000000
  34       0.00000000
  35      -0.31992436
  36      -0.04996628
  37       0.60239821
  38      -0.76598230
  39      -0.04659499
  40      -0.22228753
  41      -0.08753624
  42       0.07946420
  43       0.00697207
  44      -0.00029761
  45      -0.53052480
  46      -0.00000000
  47      -0.00000000
  48       0.21696425
  49       0.00000000
  50       0.00000000
  51      -0.48531545
  52      -0.00000000
  53      -0.00000000
  54       0.34646274
  55       0.00000000
  56       0.00000000
  57       0.27023222
  58       0.00169138
  59       0.00169138
  60      -0.00000000
  61       0.00000000
  62      -0.00000000
  63      -0.01693578
  64       0.00639767
  65       0.00639767
  66       0.00000000
  67      -0.00000000
  68       0.00000000
Ene=     1.54116E-02
Spin= Alpha
Occup=   0.0000000000
   1      -0.02551001
   2      -2.63283031
   3       0.98232013
   4       0.01789899
   5      -0.52614518
   6      -0.10394913
   7      -0.11217739
   8       0.08235600
   9       0.00426355
  10       0.00012353
  11       0.13126386
  12       0.00000000
  13      -0.00000000
  14      -1.55404018
  15      -0.00000000
  16       0.00000000
  17       0.35501131
  18       0.00000000
  19      -0.00000000
  20       0.31367966
  21      -0.00000000
  22       0.00000000
  23       0.10866099
  24       0.08500099
  25       0.08500099
  26      -0.00000000
  27      -0.00000000
  28      -0.00000000
  29      -0.32270844
  30       0.14417891
  31       0.14417891
  32      -0.00000000
  33       0.00000000
  34       0.00000000
  35       0.02551001
  36       2.63283031
  37      -0.98232013
  38      -0.01789899
  39       0.52614518
  40       0.10394913
  41       0.11217739
  42      -0.08235600
  43      -0.00426355
  44      -0.00012353
  45       0.13126386
  46      -0.00000000
  47       0.00000000
  48      -1.55404018
  49       0.00000000
  50      -0.00000000
  51       0.35501131
  52       0.00000000
  53       0.00000000
  54       0.31367966
  55      -0.00000000
  56      -0.00000000
  57      -0.10866099
  58      -0.08500099
  59      -0.08500099
  60       0.00000000
  61      -0.00000000
  62       0.00000000
  63       0.32270844
  64      -0.14417891
  65      -0.14417891
  66      -0.00000000
  67       0.00000000
  68      -0.00000000
Ene=     1.78483E-02
Spin= Alpha
Occup=   0.0000000000
   1       0.00000000
   2       0.00000000
   3       0.00000000
   4      -0.00000000
   5       0.00000000
   6      -0.00000000
   7       0.00000000
   8      -0.00000000
   9      -0.00000000
  10       0.00000000
  11       0.00000000
  12      -0.06866875
  13       0.01621911
  14       0.00000000
  15       0.16869912
  16      -0.03984562
  17       0.00000000
  18      -0.63646943
  19       0.15032989
  20      -0.00000000
  21      -0.07636313
  22       0.01803647
  23       0.00000000
  24       0.00000000
  25       0.00000000
  26       0.09080857
  27      -0.02144839
  28      -0.00000000
  29       0.00000000
  30      -0.00000000
  31      -0.00000000
  32      -0.14005584
  33       0.03308027
  34       0.00000000
  35       0.00000000
  36      -0.00000000
  37       0.00000000
  38      -0.00000000
  39       0.00000000
  40      -0.00000000
  41       0.00000000
  42      -0.00000000
  43      -0.00000000
  44      -0.00000000
  45       0.00000000
  46      -0.06866875
  47       0.01621911
  48       0.00000000
  49       0.16869912
  50      -0.03984562
  51      -0.00000000
  52      -0.63646943
  53       0.15032989
  54       0.00000000
  55      -0.07636313
  56       0.01803647
  57      -0.00000000
  58      -0.00000000
  59      -0.00000000
  60      -0.09080857
  61       0.02144839
  62       0.00000000
  63      -0.00000000
  64      -0.00000000
  65      -0.00000000
  66       0.14005584
  67      -0.03308027
  68      -0.00000000
Ene=     1.78483E-02
Spin= Alpha
Occup=   0.0000000000
   1      -0.00000000
   2      -0.00000000
   3       0.00000000
   4       0.00000000
   5      -0.00000000
   6       0.00000000
   7      -0.00000000
   8      -0.00000000
   9       0.00000000
  10      -0.00000000
  11      -0.00000000
  12      -0.01621911
  13      -0.06866875
  14      -0.00000000
  15       0.03984562
  16       0.16869912
  17      -0.00000000
  18      -0.15032989
  19      -0.63646943
  20       0.00000000
  21      -0.01803647
  22      -0.07636313
  23       0.00000000
  24       0.00000000
  25       0.00000000
  26       0.02144839
  27       0.09080857
  28       0.00000000
  29      -0.00000000
  30       0.00000000
  31       0.00000000
  32      -0.03308027
  33      -0.14005584
  34      -0.00000000
  35      -0.00000000
  36       0.00000000
  37      -0.00000000
  38       0.00000000
  39      -0.00000000
  40      -0.00000000
  41      -0.00000000
  42       0.00000000
  43       0.00000000
  44       0.00000000
  45       0.00000000
  46      -0.01621911
  47      -0.06866875
  48      -0.00000000
  49       0.03984562
  50       0.16869912
  51       0.00000000
  52      -0.15032989
  53      -0.63646943
  54      -0.00000000
  55      -0.01803647
  56      -0.07636313
  57      -0.00000000
  58       0.00000000
  59      -0.00000000
  60      -0.02144839
  61      -0.09080857
  62      -0.00000000
  63       0.00000000
  64      -0.00000000
  65      -0.00000000
  66       0.03308027
  67       0.14005584
  68       0.00000000
Ene=     1.82102E-02
Spin= Alpha
Occup=   0.0000000000
   1      -0.75836111
   2      -0.49170901
   3       0.24518297
   4       0.98491381
   5      -0.81987481
   6      -0.01216029
   7      -0.12031687
   8       0.07795988
   9       0.00210285
  10       0.00039571
  11      -0.07772447
  12      -0.00000000
  13      -0.00000000
  14      -0.03850747
  15       0.00000000
  16      -0.00000000
  17      -0.42966585
  18      -0.00000000
  19       0.00000000
  20       0.74666733
  21      -0.00000000
  22       0.00000000
  23       0.08929710
  24       0.11521632
  25       0.11521632
  26      -0.00000000
  27      -0.00000000
  28       0.00000000
  29       0.25104857
  30       0.36631550
  31       0.36631550
  32       0.00000000
  33      -0.00000000
  34      -0.00000000
  35      -0.75836111
  36      -0.49170901
  37       0.24518297
  38       0.98491381
  39      -0.81987481
  40      -0.01216029
  41      -0.12031687
  42       0.07795988
  43       0.00210285
  44       0.00039571
  45       0.07772447
  46       0.00000000
  47       0.00000000
  48       0.03850747
  49      -0.00000000
  50       0.00000000
  51       0.42966585
  52      -0.00000000
  53       0.00000000
  54      -0.74666733
  55      -0.00000000
  56      -0.00000000
  57       0.08929710
  58       0.11521632
  59       0.11521632
  60      -0.00000000
  61      -0.00000000
  62      -0.00000000
  63       0.25104857
  64       0.36631550
  65       0.36631550
  66       0.00000000
  67      -0.00000000
  68       0.00000000
Ene=     2.07053E-02
Spin= Alpha
Occup=   0.0000000000
   1       0.00000000
   2       0.00000000
   3      -0.00000000
   4       0.00000000
   5      -0.00000000
   6       0.00000000
   7      -0.00000000
   8       0.00000000
   9      -0.00000000
  10       0.00000000
  11       0.00000000
  12       0.02863045
  13       0.20768651
  14       0.00000000
  15      -0.00445121
  16      -0.03228928
  17      -0.00000000
  18       0.02494357
  19       0.18094172
  20       0.00000000
  21       0.08186506
  22       0.59385257
  23      -0.00000000
  24       0.00000000
  25       0.00000000
  26       0.00653497
  27       0.04740492
  28      -0.00000000
  29       0.00000000
  30       0.00000000
  31       0.00000000
  32       0.00539388
  33       0.03912743
  34      -0.00000000
  35       0.00000000
  36      -0.00000000
  37       0.00000000
  38      -0.00000000
  39       0.00000000
  40      -0.00000000
  41       0.00000000
  42      -0.00000000
  43      -0.00000000
  44       0.00000000
  45       0.00000000
  46      -0.02863045
  47      -0.20768651
  48       0.00000000
  49       0.00445121
  50       0.03228928
  51      -0.00000000
  52      -0.02494357
  53      -0.18094172
  54       0.00000000
  55      -0.08186506
  56      -0.59385257
  57      -0.00000000
  58      -0.00000000
  59      -0.00000000
  60       0.00653497
  61       0.04740492
  62       0.00000000
  63      -0.00000000
  64      -0.00000000
  65      -0.00000000
  66       0.00539388
  67       0.03912743
  68      -0.00000000
Ene=     2.07053E-02
Spin= Alpha
Occup=   0.0000000000
   1       0.00000000
   2      -0.00000000
   3       0.00000000
   4      -0.00000000
   5       0.00000000
   6      -0.00000000
   7       0.00000000
   8      -0.00000000
   9      -0.00000000
  10       0.00000000
  11      -0.00000000
  12      -0.20768651
  13       0.02863045
  14      -0.00000000
  15       0.03228928
  16      -0.00445121
  17       0.00000000
  18      -0.18094172
  19       0.02494357
  20      -0.00000000
  21      -0.59385257
  22       0.08186506
  23      -0.00000000
  24      -0.00000000
  25      -0.00000000
  26      -0.04740492
  27       0.00653497
  28       0.00000000
  29      -0.00000000
  30      -0.00000000
  31      -0.00000000
  32      -0.03912743
  33       0.00539388
  34      -0.00000000
  35       0.00000000
  36       0.00000000
  37      -0.00000000
  38       0.00000000
  39      -0.00000000
  40       0.00000000
  41      -0.00000000
  42       0.00000000
  43      -0.00000000
  44      -0.00000000
  45       0.00000000
  46       0.20768651
  47      -0.02863045
  48      -0.00000000
  49      -0.03228928
  50       0.00445121
  51       0.00000000
  52       0.18094172
  53      -0.02494357
  54      -0.00000000
  55       0.59385257
  56      -0.08186506
  57      -0.00000000
  58       0.00000000
  59       0.00000000
  60      -0.04740492
  61       0.00653497
  62      -0.00000000
  63       0.00000000
  64      -0.00000000
  65      -0.00000000
  66      -0.03912743
  67       0.00539388
  68       0.00000000
Ene=     2.16710E-02
Spin= Alpha
Occup=   0.0000000000
   1       0.03653406
   2      -6.44373636
   3       2.22494171
   4      -1.77985991
   5       0.73209342
   6      -0.07411155
   7       0.07572626
   8      -0.04076955
   9       0.00062758
  10      -0.00045431
  11       0.04770968
  12       0.00000000
  13      -0.00000000
  14      -4.19708504
  15       0.00000000
  16       0.00000000
  17       1.48543021
  18      -0.00000000
  19      -0.00000000
  20      -0.74021793
  21       0.00000000
  22       0.00000000
  23       0.02690718
  24       0.04637775
  25       0.04637775
  26       0.00000000
  27      -0.00000000
  28      -0.00000000
  29      -1.26216671
  30      -0.05406190
  31      -0.05406190
  32       0.00000000
  33       0.00000000
  34       0.00000000
  35      -0.03653406
  36       6.44373636
  37      -2.22494171
  38       1.77985991
  39      -0.73209342
  40       0.07411155
  41      -0.07572626
  42       0.04076955
  43      -0.00062758
  44       0.00045431
  45       0.04770968
  46      -0.00000000
  47       0.00000000
  48      -4.19708504
  49       0.00000000
  50      -0.00000000
  51       1.48543021
  52      -0.00000000
  53       0.00000000
  54      -0.74021793
  55      -0.00000000
  56      -0.00000000
  57      -0.02690718
  58      -0.04637775
  59      -0.04637775
  60       0.00000000
  61      -0.00000000
  62       0.00000000
  63       1.26216671
  64       0.05406190
  65       0.05406190
  66       0.00000000
  67       0.00000000
  68      -0.00000000
Ene=     2.38919E-02
Spin= Alpha
Occup=   0.0000000000
   1      -0.00000000
   2      -0.00000000
   3       0.00000000
   4      -0.00000000
   5       0.00000000
   6      -0.00000000
   7       0.00000000
   8      -0.00000000
   9       0.00000000
  10      -0.00000000
  11      -0.00000000
  12       0.06194443
  13      -0.00901305
  14      -0.00000000
  15      -0.15686712
  16       0.02282450
  17       0.00000000
  18       0.75653899
  19      -0.11007803
  20      -0.00000000
  21      -0.98809292
  22       0.14376962
  23      -0.00000000
  24       0.00000000
  25       0.00000000
  26      -0.08224958
  27       0.01196749
  28       0.00000000
  29       0.00000000
  30       0.00000000
  31       0.00000000
  32       0.12625149
  33      -0.01836986
  34      -0.00000000
  35      -0.00000000
  36       0.00000000
  37       0.00000000
  38      -0.00000000
  39       0.00000000
  40       0.00000000
  41       0.00000000
  42       0.00000000
  43      -0.00000000
  44      -0.00000000
  45       0.00000000
  46       0.06194443
  47      -0.00901305
  48      -0.00000000
  49      -0.15686712
  50       0.02282450
  51       0.00000000
  52       0.75653899
  53      -0.11007803
  54      -0.00000000
  55      -0.98809292
  56       0.14376962
  57      -0.00000000
  58       0.00000000
  59       0.00000000
  60       0.08224958
  61      -0.01196749
  62       0.00000000
  63       0.00000000
  64       0.00000000
  65       0.00000000
  66      -0.12625149
  67       0.01836986
  68      -0.00000000
Ene=     2.38919E-02
Spin= Alpha
Occup=   0.0000000000
   1       0.00000000
   2      -0.00000000
   3      -0.00000000
   4       0.00000000
   5      -0.00000000
   6       0.00000000
   7      -0.00000000
   8      -0.00000000
   9       0.00000000
  10      -0.00000000
  11      -0.00000000
  12      -0.00901305
  13      -0.06194443
  14      -0.00000000
  15       0.02282450
  16       0.15686712
  17       0.00000000
  18      -0.11007803
  19      -0.75653899
  20      -0.00000000
  21       0.14376962
  22       0.98809292
  23      -0.00000000
  24      -0.00000000
  25      -0.00000000
  26       0.01196749
  27       0.08224958
  28      -0.00000000
  29      -0.00000000
  30      -0.00000000
  31      -0.00000000
  32      -0.01836986
  33      -0.12625149
  34      -0.00000000
  35      -0.00000000
  36       0.00000000
  37      -0.00000000
  38       0.00000000
  39      -0.00000000
  40       0.00000000
  41      -0.00000000
  42       0.00000000
  43      -0.00000000
  44       0.00000000
  45      -0.00000000
  46      -0.00901305
  47      -0.06194443
  48      -0.00000000
  49       0.02282450
  50       0.15686712
  51       0.00000000
  52      -0.11007803
  53      -0.75653899
  54      -0.00000000
  55       0.14376962
  56       0.98809292
  57       0.00000000
  58       0.00000000
  59       0.00000000
  60      -0.01196749
  61      -0.08224958
  62      -0.00000000
  63       0.00000000
  64       0.00000000
  65       0.00000000
  66       0.01836986
  67       0.12625149
  68       0.00000000
Ene=     2.82378E-02
Spin= Alpha
Occup=   0.0000000000
   1      -0.86788098
   2      -0.13413264
   3       0.11717350
   4      -0.69151014
   5       0.53412245
   6       0.01925515
   7       0.06020634
   8      -0.04020196
   9      -0.00143236
  10      -0.00015897
  11       0.81139018
  12       0.00000000
  13       0.00000000
  14      -0.33528625
  15      -0.00000000
  16       0.00000000
  17       0.39544656
  18       0.00000000
  19      -0.00000000
  20       0.18265096
  21      -0.00000000
  22       0.00000000
  23       0.48348956
  24       0.05725614
  25       0.05725614
  26       0.00000000
  27       0.00000000
  28       0.00000000
  29       0.05564899
  30       0.15529658
  31       0.15529658
  32      -0.00000000
  33      -0.00000000
  34      -0.00000000
  35      -0.86788098
  36      -0.13413264
  37       0.11717350
  38      -0.69151014
  39       0.53412245
  40       0.01925515
  41       0.06020634
  42      -0.04020196
  43      -0.00143236
  44      -0.00015897
  45      -0.81139018
  46      -0.00000000
  47      -0.00000000
  48       0.33528625
  49       0.00000000
  50       0.00000000
  51      -0.39544656
  52      -0.00000000
  53      -0.00000000
  54      -0.18265096
  55       0.00000000
  56      -0.00000000
  57       0.48348956
  58       0.05725614
  59       0.05725614
  60       0.00000000
  61       0.00000000
  62      -0.00000000
  63       0.05564899
  64       0.15529658
  65       0.15529658
  66      -0.00000000
  67       0.00000000
  68       0.00000000
Ene=     2.85301E-02
Spin= Alpha
Occup=   0.0000000000
   1      -0.00000000
   2       0.00000000
   3       0.00000000
   4      -0.00000000
   5       0.00000000
   6      -0.00000000
   7      -0.00000000
   8       0.00000000
   9       0.00000000
  10      -0.00000000
  11       0.00000000
  12       1.42524774
  13       0.05614109
  14       0.00000000
  15      -0.46157036
  16      -0.01818144
  17      -0.00000000
  18       1.37713583
  19       0.05424594
  20      -0.00000000
  21      -0.89523549
  22      -0.03526369
  23       0.00000000
  24       0.00000000
  25       0.00000000
  26       0.37779096
  27       0.01488134
  28      -0.00000000
  29       0.00000000
  30       0.00000000
  31       0.00000000
  32       0.01247312
  33       0.00049132
  34       0.00000000
  35       0.00000000
  36      -0.00000000
  37       0.00000000
  38      -0.00000000
  39      -0.00000000
  40       0.00000000
  41      -0.00000000
  42       0.00000000
  43      -0.00000000
  44      -0.00000000
  45       0.00000000
  46      -1.42524774
  47      -0.05614109
  48       0.00000000
  49       0.46157036
  50       0.01818144
  51      -0.00000000
  52      -1.37713583
  53      -0.05424594
  54       0.00000000
  55       0.89523549
  56       0.03526369
  57      -0.00000000
  58      -0.00000000
  59      -0.00000000
  60       0.37779096
  61       0.01488134
  62       0.00000000
  63      -0.00000000
  64      -0.00000000
  65      -0.00000000
  66       0.01247312
  67       0.00049132
  68      -0.00000000
Ene=     2.85301E-02
Spin= Alpha
Occup=   0.0000000000
   1      -0.00000000
   2      -0.00000000
   3      -0.00000000
   4       0.00000000
   5      -0.00000000
   6       0.00000000
   7      -0.00000000
   8       0.00000000
   9       0.00000000
  10      -0.00000000
  11       0.00000000
  12       0.05614109
  13      -1.42524774
  14      -0.00000000
  15      -0.01818144
  16       0.46157036
  17       0.00000000
  18       0.05424594
  19      -1.37713583
  20      -0.00000000
  21      -0.03526369
  22       0.89523549
  23       0.00000000
  24      -0.00000000
  25      -0.00000000
  26       0.01488134
  27      -0.37779096
  28       0.00000000
  29      -0.00000000
  30      -0.00000000
  31      -0.00000000
  32       0.00049132
  33      -0.01247312
  34      -0.00000000
  35      -0.00000000
  36       0.00000000
  37      -0.00000000
  38       0.00000000
  39      -0.00000000
  40       0.00000000
  41      -0.00000000
  42       0.00000000
  43       0.00000000
  44       0.00000000
  45      -0.00000000
  46      -0.05614109
  47       1.42524774
  48      -0.00000000
  49       0.01818144
  50      -0.46157036
  51       0.00000000
  52      -0.05424594
  53       1.37713583
  54      -0.00000000
  55       0.03526369
  56      -0.89523549
  57       0.00000000
  58       0.00000000
  59       0.00000000
  60       0.01488134
  61      -0.37779096
  62      -0.00000000
  63       0.00000000
  64       0.00000000
  65       0.00000000
  66       0.00049132
  67      -0.01247312
  68       0.00000000
Ene=     2.98110E-02
Spin= Alpha
Occup=   0.0000000000
   1      -0.02416704
   2       1.69452868
   3      -0.49567046
   4       1.20758942
   5      -0.70779914
   6      -0.00326351
   7      -0.07204697
   8       0.04611679
   9       0.00125208
  10       0.00023859
  11       0.02543900
  12       0.00000000
  13       0.00000000
  14       1.26098249
  15      -0.00000000
  16       0.00000000
  17      -0.73578861
  18       0.00000000
  19      -0.00000000
  20      -0.18876448
  21       0.00000000
  22       0.00000000
  23       0.03413266
  24       0.00286684
  25       0.00286684
  26      -0.00000000
  27       0.00000000
  28       0.00000000
  29       0.44297218
  30       0.10874709
  31       0.10874709
  32      -0.00000000
  33      -0.00000000
  34      -0.00000000
  35       0.02416704
  36      -1.69452868
  37       0.49567046
  38      -1.20758942
  39       0.70779914
  40       0.00326351
  41       0.07204697
  42      -0.04611679
  43      -0.00125208
  44      -0.00023859
  45       0.02543900
  46       0.00000000
  47      -0.00000000
  48       1.26098249
  49       0.00000000
  50       0.00000000
  51      -0.73578861
  52       0.00000000
  53       0.00000000
  54      -0.18876448
  55      -0.00000000
  56      -0.00000000
  57      -0.03413266
  58      -0.00286684
  59      -0.00286684
  60       0.00000000
  61       0.00000000
  62      -0.00000000
  63      -0.44297218
  64      -0.10874709
  65      -0.10874709
  66      -0.00000000
  67      -0.00000000
  68       0.00000000
Ene=     3.17959E-02
Spin= Alpha
Occup=   0.0000000000
   1      -5.45884074
   2      -2.24099778
   3       4.18774395
   4      -1.60912805
   5       0.45730662
   6       0.00254350
   7       0.03278987
   8      -0.02146744
   9      -0.00073415
  10      -0.00008964
  11       2.89169983
  12       0.00000000
  13       0.00000000
  14      -1.43657573
  15       0.00000000
  16      -0.00000000
  17       0.85466195
  18      -0.00000000
  19       0.00000000
  20      -0.52391310
  21       0.00000000
  22      -0.00000000
  23       2.13731813
  24       0.55088065
  25       0.55088065
  26       0.00000000
  27       0.00000000
  28       0.00000000
  29       0.89131534
  30       1.64213455
  31       1.64213455
  32       0.00000000
  33      -0.00000000
  34      -0.00000000
  35      -5.45884074
  36      -2.24099778
  37       4.18774395
  38      -1.60912805
  39       0.45730662
  40       0.00254350
  41       0.03278987
  42      -0.02146744
  43      -0.00073415
  44      -0.00008964
  45      -2.89169983
  46      -0.00000000
  47      -0.00000000
  48       1.43657573
  49      -0.00000000
  50       0.00000000
  51      -0.85466195
  52       0.00000000
  53      -0.00000000
  54       0.52391310
  55      -0.00000000
  56       0.00000000
  57       2.13731813
  58       0.55088065
  59       0.55088065
  60       0.00000000
  61       0.00000000
  62       0.00000000
  63       0.89131534
  64       1.64213455
  65       1.64213455
  66       0.00000000
  67      -0.00000000
  68       0.00000000
Ene=     3.47881E-02
Spin= Alpha
Occup=   0.0000000000
   1      -0.87511255
   2      -0.82247068
   3       2.23144400
   4      -1.93933706
   5       0.81179757
   6      -0.02944933
   7       0.06731761
   8      -0.03980841
   9      -0.00042750
  10      -0.00030041
  11      -0.09357322
  12      -0.00000000
  13       0.00000000
  14      -0.03245460
  15      -0.00000000
  16      -0.00000000
  17      -0.65665981
  18      -0.00000000
  19       0.00000000
  20       0.59098448
  21       0.00000000
  22       0.00000000
  23       0.11723550
  24       0.13598064
  25       0.13598064
  26      -0.00000000
  27       0.00000000
  28      -0.00000000
  29       0.29449706
  30       0.44537764
  31       0.44537764
  32      -0.00000000
  33      -0.00000000
  34      -0.00000000
  35      -0.87511255
  36      -0.82247068
  37       2.23144400
  38      -1.93933706
  39       0.81179757
  40      -0.02944933
  41       0.06731761
  42      -0.03980841
  43      -0.00042750
  44      -0.00030041
  45       0.09357322
  46       0.00000000
  47      -0.00000000
  48       0.03245460
  49      -0.00000000
  50       0.00000000
  51       0.65665981
  52       0.00000000
  53      -0.00000000
  54      -0.59098448
  55      -0.00000000
  56       0.00000000
  57       0.11723550
  58       0.13598064
  59       0.13598064
  60      -0.00000000
  61       0.00000000
  62       0.00000000
  63       0.29449706
  64       0.44537764
  65       0.44537764
  66      -0.00000000
  67      -0.00000000
  68      -0.00000000
Ene=     3.51420E-02
Spin= Alpha
Occup=   0.0000000000
   1       0.02673092
   2       4.96308549
   3       0.40544638
   4      -1.06428958
   5       0.53333939
   6      -0.03642313
   7       0.04627785
   8      -0.02562377
   9       0.00013519
  10      -0.00025159
  11      -0.17766786
  12      -0.00000000