[Molden Format]
[Atoms] AU
E+       1       4     0.00000000     0.00000000     0.00000000
E+       2       4    35.40000000     0.00000000     0.00000000
[GTO]
  1 0
s  1 1.00
   1.0000000000E-04   1.0000000000E+00
s  1 1.00
   3.0000000000E-04   1.0000000000E+00
s  1 1.00
   9.0000000000E-04   1.0000000000E+00
s  1 1.00
   2.7000000000E-03   1.0000000000E+00
s  1 1.00
   8.1000000000E-03   1.0000000000E+00
s  1 1.00
   2.4300000000E-02   1.0000000000E+00
s  1 1.00
   7.2900000000E-02   1.0000000000E+00
s  1 1.00
   2.1870000000E-01   1.0000000000E+00
s  1 1.00
   6.5610000000E-01   1.0000000000E+00
s  1 1.00
   1.9683000000E+00   1.0000000000E+00
p  1 1.00
   1.0000000000E-04   1.0000000000E+00
p  1 1.00
   3.0000000000E-04   1.0000000000E+00
p  1 1.00
   9.0000000000E-04   1.0000000000E+00
p  1 1.00
   2.7000000000E-03   1.0000000000E+00
d  1 1.00
   1.0000000000E-04   1.0000000000E+00
d  1 1.00
   3.0000000000E-04   1.0000000000E+00
 
  2 0
s  1 1.00
   1.0000000000E-04   1.0000000000E+00
s  1 1.00
   3.0000000000E-04   1.0000000000E+00
s  1 1.00
   9.0000000000E-04   1.0000000000E+00
s  1 1.00
   2.7000000000E-03   1.0000000000E+00
s  1 1.00
   8.1000000000E-03   1.0000000000E+00
s  1 1.00
   2.4300000000E-02   1.0000000000E+00
s  1 1.00
   7.2900000000E-02   1.0000000000E+00
s  1 1.00
   2.1870000000E-01   1.0000000000E+00
s  1 1.00
   6.5610000000E-01   1.0000000000E+00
s  1 1.00
   1.9683000000E+00   1.0000000000E+00
p  1 1.00
   1.0000000000E-04   1.0000000000E+00
p  1 1.00
   3.0000000000E-04   1.0000000000E+00
p  1 1.00
   9.0000000000E-04   1.0000000000E+00
p  1 1.00
   2.7000000000E-03   1.0000000000E+00
d  1 1.00
   1.0000000000E-04   1.0000000000E+00
d  1 1.00
   3.0000000000E-04   1.0000000000E+00
 
 
[MO]
Ene=    -3.85438E-03
Spin= Alpha
Occup=   1.0000000000
   1       0.06356677
   2      -0.05416502
   3      -0.00398797
   4      -0.21653129
   5      -0.28536865
   6      -0.19320283
   7      -0.12069718
   8       0.09742886
   9       0.00663684
  10      -0.00008993
  11      -0.21680135
  12       0.00000000
  13      -0.00000000
  14       0.07454019
  15      -0.00000000
  16       0.00000000
  17      -0.04750114
  18      -0.00000000
  19       0.00000000
  20       0.00186395
  21       0.00000000
  22      -0.00000000
  23      -0.06614516
  24       0.00199623
  25       0.00199623
  26       0.00000000
  27      -0.00000000
  28       0.00000000
  29       0.04021736
  30       0.00827580
  31       0.00827580
  32      -0.00000000
  33       0.00000000
  34      -0.00000000
  35       0.06356677
  36      -0.05416502
  37      -0.00398797
  38      -0.21653129
  39      -0.28536865
  40      -0.19320283
  41      -0.12069718
  42       0.09742886
  43       0.00663684
  44      -0.00008993
  45       0.21680135
  46      -0.00000000
  47       0.00000000
  48      -0.07454019
  49       0.00000000
  50      -0.00000000
  51       0.04750114
  52       0.00000000
  53      -0.00000000
  54      -0.00186395
  55      -0.00000000
  56       0.00000000
  57      -0.06614516
  58       0.00199623
  59       0.00199623
  60       0.00000000
  61      -0.00000000
  62      -0.00000000
  63       0.04021736
  64       0.00827580
  65       0.00827580
  66      -0.00000000
  67       0.00000000
  68      -0.00000000
Ene=    -3.42784E-03
Spin= Alpha
Occup=   0.0000000000
   1       0.00169651
   2       0.00689087
   3       0.02607721
   4       0.28688331
   5       0.27856655
   6       0.21204289
   7       0.12332079
   8      -0.10110020
   9      -0.00717769
  10       0.00013453
  11      -0.00821638
  12       0.00000000
  13       0.00000000
  14      -0.01629206
  15      -0.00000000
  16      -0.00000000
  17       0.05678843
  18       0.00000000
  19      -0.00000000
  20       0.01949154
  21      -0.00000000
  22       0.00000000
  23      -0.01259668
  24      -0.00561237
  25      -0.00561237
  26       0.00000000
  27       0.00000000
  28      -0.00000000
  29      -0.02159727
  30      -0.02842450
  31      -0.02842450
  32      -0.00000000
  33      -0.00000000
  34       0.00000000
  35      -0.00169651
  36      -0.00689087
  37      -0.02607721
  38      -0.28688331
  39      -0.27856655
  40      -0.21204289
  41      -0.12332079
  42       0.10110020
  43       0.00717769
  44      -0.00013453
  45      -0.00821638
  46      -0.00000000
  47      -0.00000000
  48      -0.01629206
  49       0.00000000
  50       0.00000000
  51       0.05678843
  52       0.00000000
  53      -0.00000000
  54       0.01949154
  55      -0.00000000
  56       0.00000000
  57       0.01259668
  58       0.00561237
  59       0.00561237
  60       0.00000000
  61       0.00000000
  62      -0.00000000
  63       0.02159727
  64       0.02842450
  65       0.02842450
  66      -0.00000000
  67      -0.00000000
  68       0.00000000
Ene=     4.15070E-03
Spin= Alpha
Occup=   0.0000000000
   1      -0.70564389
   2      -0.04449289
   3       1.04780012
   4      -0.71660629
   5      -0.04899633
   6      -0.11164709
   7      -0.03642635
   8       0.03474292
   9       0.00334581
  10      -0.00016802
  11       1.50696959
  12       0.00000000
  13      -0.00000000
  14      -0.47277933
  15      -0.00000000
  16       0.00000000
  17       0.48315640
  18       0.00000000
  19      -0.00000000
  20      -0.04882595
  21       0.00000000
  22       0.00000000
  23       0.49266639
  24       0.02481634
  25       0.02481634
  26       0.00000000
  27      -0.00000000
  28      -0.00000000
  29      -0.09085262
  30       0.08616402
  31       0.08616402
  32      -0.00000000
  33       0.00000000
  34       0.00000000
  35      -0.70564389
  36      -0.04449289
  37       1.04780012
  38      -0.71660629
  39      -0.04899633
  40      -0.11164709
  41      -0.03642635
  42       0.03474292
  43       0.00334581
  44      -0.00016802
  45      -1.50696959
  46      -0.00000000
  47       0.00000000
  48       0.47277933
  49       0.00000000
  50      -0.00000000
  51      -0.48315640
  52      -0.00000000
  53       0.00000000
  54       0.04882595
  55      -0.00000000
  56       0.00000000
  57       0.49266639
  58       0.02481634
  59       0.02481634
  60       0.00000000
  61      -0.00000000
  62       0.00000000
  63      -0.09085262
  64       0.08616402
  65       0.08616402
  66      -0.00000000
  67       0.00000000
  68      -0.00000000
Ene=     5.73407E-03
Spin= Alpha
Occup=   0.0000000000
   1       0.00000000
   2       0.00000000
   3       0.00000000
   4       0.00000000
   5      -0.00000000
   6       0.00000000
   7      -0.00000000
   8       0.00000000
   9       0.00000000
  10      -0.00000000
  11      -0.00000000
  12       0.01880819
  13       0.01914894
  14      -0.00000000
  15      -0.05990549
  16      -0.06099081
  17       0.00000000
  18       0.21273798
  19       0.21659221
  20       0.00000000
  21       0.27427129
  22       0.27924034
  23      -0.00000000
  24      -0.00000000
  25      -0.00000000
  26      -0.00345595
  27      -0.00351857
  28      -0.00000000
  29      -0.00000000
  30      -0.00000000
  31      -0.00000000
  32       0.02145685
  33       0.02184559
  34       0.00000000
  35       0.00000000
  36       0.00000000
  37      -0.00000000
  38       0.00000000
  39      -0.00000000
  40       0.00000000
  41      -0.00000000
  42       0.00000000
  43      -0.00000000
  44       0.00000000
  45       0.00000000
  46       0.01880819
  47       0.01914894
  48       0.00000000
  49      -0.05990549
  50      -0.06099081
  51       0.00000000
  52       0.21273798
  53       0.21659221
  54      -0.00000000
  55       0.27427129
  56       0.27924034
  57      -0.00000000
  58       0.00000000
  59       0.00000000
  60       0.00345595
  61       0.00351857
  62       0.00000000
  63      -0.00000000
  64       0.00000000
  65       0.00000000
  66      -0.02145685
  67      -0.02184559
  68      -0.00000000
Ene=     5.73407E-03
Spin= Alpha
Occup=   0.0000000000
   1      -0.00000000
   2       0.00000000
   3      -0.00000000
   4      -0.00000000
   5       0.00000000
   6      -0.00000000
   7       0.00000000
   8      -0.00000000
   9      -0.00000000
  10       0.00000000
  11       0.00000000
  12      -0.01914894
  13       0.01880819
  14      -0.00000000
  15       0.06099081
  16      -0.05990549
  17       0.00000000
  18      -0.21659221
  19       0.21273798
  20      -0.00000000
  21      -0.27924034
  22       0.27427129
  23       0.00000000
  24      -0.00000000
  25      -0.00000000
  26       0.00351857
  27      -0.00345595
  28       0.00000000
  29      -0.00000000
  30      -0.00000000
  31      -0.00000000
  32      -0.02184559
  33       0.02145685
  34       0.00000000
  35      -0.00000000
  36       0.00000000
  37       0.00000000
  38      -0.00000000
  39      -0.00000000
  40       0.00000000
  41      -0.00000000
  42       0.00000000
  43      -0.00000000
  44       0.00000000
  45      -0.00000000
  46      -0.01914894
  47       0.01880819
  48       0.00000000
  49       0.06099081
  50      -0.05990549
  51      -0.00000000
  52      -0.21659221
  53       0.21273798
  54       0.00000000
  55      -0.27924034
  56       0.27427129
  57       0.00000000
  58       0.00000000
  59       0.00000000
  60      -0.00351857
  61       0.00345595
  62      -0.00000000
  63      -0.00000000
  64       0.00000000
  65       0.00000000
  66       0.02184559
  67      -0.02145685
  68      -0.00000000
Ene=     8.16197E-03
Spin= Alpha
Occup=   0.0000000000
   1       0.00000000
   2      -0.00000000
   3       0.00000000
   4       0.00000000
   5      -0.00000000
   6      -0.00000000
   7      -0.00000000
   8       0.00000000
   9      -0.00000000
  10       0.00000000
  11       0.00000000
  12      -0.58741829
  13       0.00849310
  14      -0.00000000
  15       0.06748495
  16      -0.00097572
  17       0.00000000
  18      -0.11557359
  19       0.00167100
  20       0.00000000
  21      -0.73000777
  22       0.01055471
  23      -0.00000000
  24       0.00000000
  25       0.00000000
  26      -0.10105794
  27       0.00146113
  28       0.00000000
  29      -0.00000000
  30       0.00000000
  31       0.00000000
  32       0.00308628
  33      -0.00004462
  34      -0.00000000
  35      -0.00000000
  36       0.00000000
  37      -0.00000000
  38       0.00000000
  39      -0.00000000
  40       0.00000000
  41      -0.00000000
  42       0.00000000
  43      -0.00000000
  44       0.00000000
  45       0.00000000
  46       0.58741829
  47      -0.00849310
  48      -0.00000000
  49      -0.06748495
  50       0.00097572
  51       0.00000000
  52       0.11557359
  53      -0.00167100
  54      -0.00000000
  55       0.73000777
  56      -0.01055471
  57      -0.00000000
  58      -0.00000000
  59      -0.00000000
  60      -0.10105794
  61       0.00146113
  62      -0.00000000
  63       0.00000000
  64       0.00000000
  65       0.00000000
  66       0.00308628
  67      -0.00004462
  68       0.00000000
Ene=     8.16197E-03
Spin= Alpha
Occup=   0.0000000000
   1      -0.00000000
   2      -0.00000000
   3       0.00000000
   4      -0.00000000
   5      -0.00000000
   6       0.00000000
   7      -0.00000000
   8      -0.00000000
   9       0.00000000
  10      -0.00000000
  11      -0.00000000
  12       0.00849310
  13       0.58741829
  14      -0.00000000
  15      -0.00097572
  16      -0.06748495
  17       0.00000000
  18       0.00167100
  19       0.11557359
  20      -0.00000000
  21       0.01055471
  22       0.73000777
  23       0.00000000
  24      -0.00000000
  25      -0.00000000
  26       0.00146113
  27       0.10105794
  28       0.00000000
  29      -0.00000000
  30      -0.00000000
  31      -0.00000000
  32      -0.00004462
  33      -0.00308628
  34      -0.00000000
  35       0.00000000
  36       0.00000000
  37      -0.00000000
  38      -0.00000000
  39       0.00000000
  40      -0.00000000
  41       0.00000000
  42      -0.00000000
  43      -0.00000000
  44      -0.00000000
  45      -0.00000000
  46      -0.00849310
  47      -0.58741829
  48      -0.00000000
  49       0.00097572
  50       0.06748495
  51       0.00000000
  52      -0.00167100
  53      -0.11557359
  54       0.00000000
  55      -0.01055471
  56      -0.73000777
  57       0.00000000
  58       0.00000000
  59       0.00000000
  60       0.00146113
  61       0.10105794
  62       0.00000000
  63       0.00000000
  64       0.00000000
  65       0.00000000
  66      -0.00004462
  67      -0.00308628
  68      -0.00000000
Ene=     9.01696E-03
Spin= Alpha
Occup=   0.0000000000
   1      -0.02580940
   2       0.00667970
   3       2.90083256
   4       0.17049301
   5      -0.56075278
   6      -0.01781989
   7      -0.08054213
   8       0.05293827
   9       0.00163345
  10       0.00024187
  11       0.13291649
  12       0.00000000
  13       0.00000000
  14      -0.03076523
  15      -0.00000000
  16      -0.00000000
  17       1.10669976
  18       0.00000000
  19       0.00000000
  20       0.27637017
  21      -0.00000000
  22      -0.00000000
  23       0.10134965
  24       0.18486791
  25       0.18486791
  26       0.00000000
  27       0.00000000
  28       0.00000000
  29       0.26083607
  30       0.11127857
  31       0.11127857
  32      -0.00000000
  33      -0.00000000
  34      -0.00000000
  35       0.02580940
  36      -0.00667970
  37      -2.90083256
  38      -0.17049301
  39       0.56075278
  40       0.01781989
  41       0.08054213
  42      -0.05293827
  43      -0.00163345
  44      -0.00024187
  45       0.13291649
  46      -0.00000000
  47      -0.00000000
  48      -0.03076523
  49       0.00000000
  50       0.00000000
  51       1.10669976
  52      -0.00000000
  53      -0.00000000
  54       0.27637017
  55       0.00000000
  56       0.00000000
  57      -0.10134965
  58      -0.18486791
  59      -0.18486791
  60       0.00000000
  61       0.00000000
  62       0.00000000
  63      -0.26083607
  64      -0.11127857
  65      -0.11127857
  66      -0.00000000
  67      -0.00000000
  68      -0.00000000
Ene=     9.42975E-03
Spin= Alpha
Occup=   0.0000000000
   1       0.35285925
   2      -0.26731689
   3      -0.38705665
   4       0.76515295
   5      -0.40626132
   6       0.05048277
   7      -0.04706698
   8       0.02470791
   9      -0.00054368
  10       0.00029890
  11      -1.38187822
  12      -0.00000000
  13      -0.00000000
  14       0.38302179
  15       0.00000000
  16       0.00000000
  17      -0.43731265
  18      -0.00000000
  19      -0.00000000
  20       0.71427284
  21       0.00000000
  22       0.00000000
  23      -0.41121740
  24       0.02034200
  25       0.02034200
  26      -0.00000000
  27      -0.00000000
  28      -0.00000000
  29       0.21240869
  30       0.06933980
  31       0.06933980
  32       0.00000000
  33      -0.00000000
  34       0.00000000
  35       0.35285925
  36      -0.26731689
  37      -0.38705665
  38       0.76515295
  39      -0.40626132
  40       0.05048277
  41      -0.04706698
  42       0.02470791
  43      -0.00054368
  44       0.00029890
  45       1.38187822
  46       0.00000000
  47       0.00000000
  48      -0.38302179
  49      -0.00000000
  50      -0.00000000
  51       0.43731265
  52       0.00000000
  53      -0.00000000
  54      -0.71427284
  55      -0.00000000
  56       0.00000000
  57      -0.41121740
  58       0.02034200
  59       0.02034200
  60      -0.00000000
  61      -0.00000000
  62       0.00000000
  63       0.21240869
  64       0.06933980
  65       0.06933980
  66       0.00000000
  67       0.00000000
  68      -0.00000000
Ene=     1.29053E-02
Spin= Alpha
Occup=   0.0000000000
   1      -0.00000000
   2       0.00000000
   3       0.00000000
   4      -0.00000000
   5       0.00000000
   6       0.00000000
   7       0.00000000
   8      -0.00000000
   9      -0.00000000
  10      -0.00000000
  11       0.00000000
  12       0.00900716
  13       0.06680951
  14      -0.00000000
  15      -0.03011001
  16      -0.22333723
  17       0.00000000
  18       0.12925893
  19       0.95876204
  20       0.00000000
  21      -0.12482252
  22      -0.92585552
  23       0.00000000
  24      -0.00000000
  25      -0.00000000
  26      -0.00081283
  27      -0.00602908
  28      -0.00000000
  29      -0.00000000
  30      -0.00000000
  31      -0.00000000
  32       0.00917090
  33       0.06802399
  34       0.00000000
  35      -0.00000000
  36       0.00000000
  37       0.00000000
  38      -0.00000000
  39       0.00000000
  40      -0.00000000
  41       0.00000000
  42      -0.00000000
  43      -0.00000000
  44      -0.00000000
  45      -0.00000000
  46       0.00900716
  47       0.06680951
  48       0.00000000
  49      -0.03011001
  50      -0.22333723
  51      -0.00000000
  52       0.12925893
  53       0.95876204
  54      -0.00000000
  55      -0.12482252
  56      -0.92585552
  57       0.00000000
  58      -0.00000000
  59      -0.00000000
  60       0.00081283
  61       0.00602908
  62       0.00000000
  63      -0.00000000
  64      -0.00000000
  65      -0.00000000
  66      -0.00917090
  67      -0.06802399
  68      -0.00000000
Ene=     1.29053E-02
Spin= Alpha
Occup=   0.0000000000
   1       0.00000000
   2      -0.00000000
   3       0.00000000
   4       0.00000000
   5      -0.00000000
   6       0.00000000
   7      -0.00000000
   8       0.00000000
   9      -0.00000000
  10       0.00000000
  11      -0.00000000
  12      -0.06680951
  13       0.00900716
  14       0.00000000
  15       0.22333723
  16      -0.03011001
  17      -0.00000000
  18      -0.95876204
  19       0.12925893
  20       0.00000000
  21       0.92585552
  22      -0.12482252
  23      -0.00000000
  24       0.00000000
  25       0.00000000
  26       0.00602908
  27      -0.00081283
  28      -0.00000000
  29       0.00000000
  30       0.00000000
  31       0.00000000
  32      -0.06802399
  33       0.00917090
  34       0.00000000
  35       0.00000000
  36      -0.00000000
  37      -0.00000000
  38       0.00000000
  39      -0.00000000
  40      -0.00000000
  41      -0.00000000
  42       0.00000000
  43      -0.00000000
  44       0.00000000
  45       0.00000000
  46      -0.06680951
  47       0.00900716
  48      -0.00000000
  49       0.22333723
  50      -0.03011001
  51       0.00000000
  52      -0.95876204
  53       0.12925893
  54       0.00000000
  55       0.92585552
  56      -0.12482252
  57      -0.00000000
  58      -0.00000000
  59      -0.00000000
  60      -0.00602908
  61       0.00081283
  62       0.00000000
  63       0.00000000
  64      -0.00000000
  65      -0.00000000
  66       0.06802399
  67      -0.00917090
  68       0.00000000
Ene=     1.29658E-02
Spin= Alpha
Occup=   0.0000000000
   1       0.26637873
   2      -0.21008493
   3      -0.31404801
   4       1.60737651
   5      -0.96910093
   6       0.00370172
   7      -0.10929197
   8       0.06901226
   9       0.00160354
  10       0.00039296
  11      -1.23600851
  12      -0.00000000
  13       0.00000000
  14       0.21119347
  15      -0.00000000
  16       0.00000000
  17      -0.41213828
  18       0.00000000
  19       0.00000000
  20      -0.09488134
  21      -0.00000000
  22      -0.00000000
  23      -0.35738625
  24       0.02441030
  25       0.02441030
  26      -0.00000000
  27       0.00000000
  28       0.00000000
  29       0.13590137
  30       0.08824688
  31       0.08824688
  32      -0.00000000
  33       0.00000000
  34       0.00000000
  35       0.26637873
  36      -0.21008493
  37      -0.31404801
  38       1.60737651
  39      -0.96910093
  40       0.00370172
  41      -0.10929197
  42       0.06901226
  43       0.00160354
  44       0.00039296
  45       1.23600851
  46       0.00000000
  47      -0.00000000
  48      -0.21119347
  49       0.00000000
  50      -0.00000000
  51       0.41213828
  52       0.00000000
  53       0.00000000
  54       0.09488134
  55      -0.00000000
  56      -0.00000000
  57      -0.35738625
  58       0.02441030
  59       0.02441030
  60      -0.00000000
  61       0.00000000
  62       0.00000000
  63       0.13590137
  64       0.08824688
  65       0.08824688
  66      -0.00000000
  67       0.00000000
  68      -0.00000000
Ene=     1.35983E-02
Spin= Alpha
Occup=   0.0000000000
   1      -0.01665817
   2      -0.02153032
   3       0.98037318
   4      -0.03847310
   5      -0.01131218
   6       0.07585809
   7       0.00629563
   8      -0.01158889
   9      -0.00190928
  10       0.00016664
  11       0.08377492
  12       0.00000000
  13      -0.00000000
  14       0.04162101
  15      -0.00000000
  16       0.00000000
  17       0.21391571
  18       0.00000000
  19       0.00000000
  20       1.12614890
  21      -0.00000000
  22      -0.00000000
  23       0.08853367
  24       0.09669071
  25       0.09669071
  26       0.00000000
  27       0.00000000
  28      -0.00000000
  29       0.17915401
  30       0.14473162
  31       0.14473162
  32      -0.00000000
  33      -0.00000000
  34       0.00000000
  35       0.01665817
  36       0.02153032
  37      -0.98037318
  38       0.03847310
  39       0.01131218
  40      -0.07585809
  41      -0.00629563
  42       0.01158889
  43       0.00190928
  44      -0.00016664
  45       0.08377492
  46      -0.00000000
  47       0.00000000
  48       0.04162101
  49       0.00000000
  50      -0.00000000
  51       0.21391571
  52      -0.00000000
  53       0.00000000
  54       1.12614890
  55      -0.00000000
  56      -0.00000000
  57      -0.08853367
  58      -0.09669071
  59      -0.09669071
  60       0.00000000
  61      -0.00000000
  62      -0.00000000
  63      -0.17915401
  64      -0.14473162
  65      -0.14473162
  66      -0.00000000
  67       0.00000000
  68       0.00000000
Ene=     1.78240E-02
Spin= Alpha
Occup=   0.0000000000
   1       0.01352939
   2      -0.04769014
   3      -4.86684058
   4       2.89640835
   5      -1.28998592
   6       0.07976109
   7      -0.11429530
   8       0.06470291
   9      -0.00000608
  10       0.00058512
  11      -0.07363124
  12      -0.00000000
  13      -0.00000000
  14       0.08852143
  15       0.00000000
  16       0.00000000
  17      -1.97377444
  18      -0.00000000
  19      -0.00000000
  20       0.36233345
  21       0.00000000
  22       0.00000000
  23      -0.01021455
  24      -0.13606314
  25      -0.13606314
  26      -0.00000000
  27      -0.00000000
  28      -0.00000000
  29      -0.14720843
  30       0.05148588
  31       0.05148588
  32       0.00000000
  33       0.00000000
  34       0.00000000
  35      -0.01352939
  36       0.04769014
  37       4.86684058
  38      -2.89640835
  39       1.28998592
  40      -0.07976109
  41       0.11429530
  42      -0.06470291
  43       0.00000608
  44      -0.00058512
  45      -0.07363124
  46       0.00000000
  47       0.00000000
  48       0.08852143
  49      -0.00000000
  50      -0.00000000
  51      -1.97377444
  52       0.00000000
  53       0.00000000
  54       0.36233345
  55      -0.00000000
  56      -0.00000000
  57       0.01021455
  58       0.13606314
  59       0.13606314
  60      -0.00000000
  61      -0.00000000
  62       0.00000000
  63       0.14720843
  64      -0.05148588
  65      -0.05148588
  66       0.00000000
  67       0.00000000
  68      -0.00000000
Ene=     1.91240E-02
Spin= Alpha
Occup=   0.0000000000
   1      -0.00000000
   2       0.00000000
   3      -0.00000000
   4       0.00000000
   5      -0.00000000
   6       0.00000000
   7      -0.00000000
   8       0.00000000
   9      -0.00000000
  10       0.00000000
  11      -0.00000000
  12       7.72806045
  13      -3.38912233
  14       0.00000000
  15      -1.68837294
  16       0.74043189
  17      -0.00000000
  18       1.64332256
  19      -0.72067516
  20       0.00000000
  21      -0.78013918
  22       0.34212816
  23      -0.00000000
  24      -0.00000000
  25      -0.00000000
  26       1.35166300
  27      -0.59276856
  28      -0.00000000
  29       0.00000000
  30      -0.00000000
  31      -0.00000000
  32      -0.34208180
  33       0.15001915
  34       0.00000000
  35       0.00000000
  36      -0.00000000
  37       0.00000000
  38      -0.00000000
  39       0.00000000
  40      -0.00000000
  41       0.00000000
  42      -0.00000000
  43       0.00000000
  44      -0.00000000
  45       0.00000000
  46      -7.72806045
  47       3.38912233
  48       0.00000000
  49       1.68837294
  50      -0.74043189
  51      -0.00000000
  52      -1.64332256
  53       0.72067516
  54      -0.00000000
  55       0.78013918
  56      -0.34212816
  57      -0.00000000
  58      -0.00000000
  59      -0.00000000
  60       1.35166300
  61      -0.59276856
  62       0.00000000
  63      -0.00000000
  64      -0.00000000
  65      -0.00000000
  66      -0.34208180
  67       0.15001915
  68      -0.00000000
Ene=     1.91240E-02
Spin= Alpha
Occup=   0.0000000000
   1      -0.00000000
   2      -0.00000000
   3      -0.00000000
   4       0.00000000
   5      -0.00000000
   6      -0.00000000
   7      -0.00000000
   8       0.00000000
   9       0.00000000
  10       0.00000000
  11      -0.00000000
  12       3.38912232
  13       7.72806045
  14      -0.00000000
  15      -0.74043189
  16      -1.68837294
  17      -0.00000000
  18       0.72067516
  19       1.64332256
  20       0.00000000
  21      -0.34212816
  22      -0.78013918
  23      -0.00000000
  24      -0.00000000
  25      -0.00000000
  26       0.59276856
  27       1.35166300
  28       0.00000000
  29      -0.00000000
  30      -0.00000000
  31      -0.00000000
  32      -0.15001915
  33      -0.34208180
  34      -0.00000000
  35       0.00000000
  36       0.00000000
  37       0.00000000
  38      -0.00000000
  39       0.00000000
  40       0.00000000
  41       0.00000000
  42      -0.00000000
  43      -0.00000000
  44      -0.00000000
  45      -0.00000000
  46      -3.38912232
  47      -7.72806045
  48      -0.00000000
  49       0.74043189
  50       1.68837294
  51      -0.00000000
  52      -0.72067516
  53      -1.64332256
  54       0.00000000
  55       0.34212816
  56       0.78013918
  57       0.00000000
  58       0.00000000
  59       0.00000000
  60       0.59276856
  61       1.35166300
  62      -0.00000000
  63       0.00000000
  64       0.00000000
  65       0.00000000
  66      -0.15001915
  67      -0.34208180
  68       0.00000000
Ene=     2.34157E-02
Spin= Alpha
Occup=   0.0000000000
   1       1.49374966
   2      -1.57449244
   3       1.80010801
   4      -1.20819188
   5       0.44125160
   6       0.03954661
   7       0.03323756
   8      -0.02496775
   9      -0.00147396
  10      -0.00001883
  11      -5.38755968
  12       0.00000000
  13      -0.00000000
  14       1.44965915
  15      -0.00000000
  16       0.00000000
  17      -1.26386288
  18       0.00000000
  19       0.00000000
  20       0.62817466
  21       0.00000000
  22      -0.00000000
  23      -1.63167153
  24       0.05954926
  25       0.05954926
  26       0.00000000
  27      -0.00000000
  28       0.00000000
  29       0.87477189
  30       0.30371712
  31       0.30371712
  32      -0.00000000
  33       0.00000000
  34      -0.00000000
  35       1.49374966
  36      -1.57449244
  37       1.80010801
  38      -1.20819188
  39       0.44125160
  40       0.03954661
  41       0.03323756
  42      -0.02496775
  43      -0.00147396
  44      -0.00001883
  45       5.38755968
  46      -0.00000000
  47       0.00000000
  48      -1.44965915
  49       0.00000000
  50      -0.00000000
  51       1.26386288
  52      -0.00000000
  53       0.00000000
  54      -0.62817466
  55      -0.00000000
  56       0.00000000
  57      -1.63167153
  58       0.05954926
  59       0.05954926
  60       0.00000000
  61      -0.00000000
  62      -0.00000000
  63       0.87477189
  64       0.30371712
  65       0.30371712
  66      -0.00000000
  67       0.00000000
  68       0.00000000
Ene=     2.59524E-02
Spin= Alpha
Occup=   0.0000000000
   1       0.07015609
   2       0.33389821
   3       2.71629771
   4      -0.01118373
   5      -0.00062068
   6      -0.04029335
   7      -0.00134362
   8       0.00462569
   9       0.00088891
  10      -0.00008282
  11      -0.33762465
  12       0.00000000
  13      -0.00000000
  14      -0.76135226
  15      -0.00000000
  16      -0.00000000
  17       3.81298766
  18       0.00000000
  19      -0.00000000
  20      -0.89916285
  21       0.00000000
  22      -0.00000000
  23      -0.54509983
  24      -0.23783678
  25      -0.23783678
  26       0.00000000
  27      -0.00000000
  28      -0.00000000
  29      -0.92953118
  30      -1.20265618
  31      -1.20265618
  32      -0.00000000
  33      -0.00000000
  34       0.00000000
  35      -0.07015609
  36      -0.33389821
  37      -2.71629771
  38       0.01118373
  39       0.00062068
  40       0.04029335
  41       0.00134362
  42      -0.00462569
  43      -0.00088891
  44       0.00008282
  45      -0.33762465
  46      -0.00000000
  47       0.00000000
  48      -0.76135226
  49       0.00000000
  50       0.00000000
  51       3.81298766
  52      -0.00000000
  53      -0.00000000
  54      -0.89916285
  55      -0.00000000
  56       0.00000000
  57       0.54509983
  58       0.23783678
  59       0.23783678
  60       0.00000000
  61      -0.00000000
  62       0.00000000
  63       0.92953118
  64       1.20265618
  65       1.20265618
  66      -0.00000000
  67      -0.00000000
  68      -0.00000000
Ene=     2.91838E-02
Spin= Alpha
Occup=   0.0000000000
   1      -5.18749496
   2      -2.23356576
   3       4.78035296
   4      -2.11042824
   5       0.42995246
   6       0.12298614
   7       0.01900082
   8      -0.02427307
   9      -0.00324869
  10       0.00023543
  11       4.64066961
  12      -0.00000000