[Molden Format]
[Atoms] AU
E+       1       4     0.00000000     0.00000000     0.00000000
E+       2       4    38.80000000     0.00000000     0.00000000
[GTO]
  1 0
s  1 1.00
   1.0000000000E-04   1.0000000000E+00
s  1 1.00
   3.0000000000E-04   1.0000000000E+00
s  1 1.00
   9.0000000000E-04   1.0000000000E+00
s  1 1.00
   2.7000000000E-03   1.0000000000E+00
s  1 1.00
   8.1000000000E-03   1.0000000000E+00
s  1 1.00
   2.4300000000E-02   1.0000000000E+00
s  1 1.00
   7.2900000000E-02   1.0000000000E+00
s  1 1.00
   2.1870000000E-01   1.0000000000E+00
s  1 1.00
   6.5610000000E-01   1.0000000000E+00
s  1 1.00
   1.9683000000E+00   1.0000000000E+00
p  1 1.00
   1.0000000000E-04   1.0000000000E+00
p  1 1.00
   3.0000000000E-04   1.0000000000E+00
p  1 1.00
   9.0000000000E-04   1.0000000000E+00
p  1 1.00
   2.7000000000E-03   1.0000000000E+00
d  1 1.00
   1.0000000000E-04   1.0000000000E+00
d  1 1.00
   3.0000000000E-04   1.0000000000E+00
 
  2 0
s  1 1.00
   1.0000000000E-04   1.0000000000E+00
s  1 1.00
   3.0000000000E-04   1.0000000000E+00
s  1 1.00
   9.0000000000E-04   1.0000000000E+00
s  1 1.00
   2.7000000000E-03   1.0000000000E+00
s  1 1.00
   8.1000000000E-03   1.0000000000E+00
s  1 1.00
   2.4300000000E-02   1.0000000000E+00
s  1 1.00
   7.2900000000E-02   1.0000000000E+00
s  1 1.00
   2.1870000000E-01   1.0000000000E+00
s  1 1.00
   6.5610000000E-01   1.0000000000E+00
s  1 1.00
   1.9683000000E+00   1.0000000000E+00
p  1 1.00
   1.0000000000E-04   1.0000000000E+00
p  1 1.00
   3.0000000000E-04   1.0000000000E+00
p  1 1.00
   9.0000000000E-04   1.0000000000E+00
p  1 1.00
   2.7000000000E-03   1.0000000000E+00
d  1 1.00
   1.0000000000E-04   1.0000000000E+00
d  1 1.00
   3.0000000000E-04   1.0000000000E+00
 
 
[MO]
Ene=    -3.79758E-03
Spin= Alpha
Occup=   1.0000000000
   1       0.03307823
   2      -0.02119291
   3      -0.01621038
   4      -0.19530744
   5      -0.30177070
   6      -0.19814784
   7      -0.12274993
   8       0.09918296
   9       0.00678600
  10      -0.00009517
  11      -0.10235991
  12       0.00000000
  13      -0.00000000
  14       0.03262689
  15       0.00000000
  16       0.00000000
  17      -0.02919871
  18       0.00000000
  19      -0.00000000
  20      -0.03222119
  21      -0.00000000
  22       0.00000000
  23      -0.03416552
  24       0.00100302
  25       0.00100302
  26       0.00000000
  27      -0.00000000
  28      -0.00000000
  29       0.01716283
  30       0.00381230
  31       0.00381230
  32       0.00000000
  33      -0.00000000
  34       0.00000000
  35       0.03307823
  36      -0.02119291
  37      -0.01621038
  38      -0.19530744
  39      -0.30177070
  40      -0.19814784
  41      -0.12274993
  42       0.09918296
  43       0.00678600
  44      -0.00009517
  45       0.10235991
  46      -0.00000000
  47       0.00000000
  48      -0.03262689
  49      -0.00000000
  50      -0.00000000
  51       0.02919871
  52      -0.00000000
  53       0.00000000
  54       0.03222119
  55       0.00000000
  56      -0.00000000
  57      -0.03416552
  58       0.00100302
  59       0.00100302
  60      -0.00000000
  61      -0.00000000
  62       0.00000000
  63       0.01716283
  64       0.00381230
  65       0.00381230
  66       0.00000000
  67       0.00000000
  68      -0.00000000
Ene=    -3.50530E-03
Spin= Alpha
Occup=   0.0000000000
   1       0.00028495
   2       0.00196974
   3       0.01002290
   4       0.26105221
   5       0.28732245
   6       0.21638211
   7       0.12419825
   8      -0.10202946
   9      -0.00728612
  10       0.00014134
  11      -0.00120189
  12       0.00000000
  13       0.00000000
  14      -0.00481816
  15      -0.00000000
  16      -0.00000000
  17       0.01590470
  18       0.00000000
  19      -0.00000000
  20       0.06292779
  21      -0.00000000
  22       0.00000000
  23      -0.00240314
  24      -0.00007636
  25      -0.00007636
  26       0.00000000
  27       0.00000000
  28       0.00000000
  29      -0.00386178
  30      -0.00634046
  31      -0.00634046
  32      -0.00000000
  33      -0.00000000
  34      -0.00000000
  35      -0.00028495
  36      -0.00196974
  37      -0.01002290
  38      -0.26105221
  39      -0.28732245
  40      -0.21638211
  41      -0.12419825
  42       0.10202946
  43       0.00728612
  44      -0.00014134
  45      -0.00120189
  46      -0.00000000
  47      -0.00000000
  48      -0.00481816
  49       0.00000000
  50       0.00000000
  51       0.01590470
  52      -0.00000000
  53       0.00000000
  54       0.06292779
  55      -0.00000000
  56      -0.00000000
  57       0.00240314
  58       0.00007636
  59       0.00007636
  60       0.00000000
  61       0.00000000
  62       0.00000000
  63       0.00386178
  64       0.00634046
  65       0.00634046
  66      -0.00000000
  67      -0.00000000
  68      -0.00000000
Ene=     4.25299E-03
Spin= Alpha
Occup=   0.0000000000
   1       0.66011549
   2       0.08494489
   3      -1.00157746
   4       0.63028484
   5       0.06495968
   6       0.11441986
   7       0.03802248
   8      -0.03598220
   9      -0.00342153
  10       0.00016743
  11      -1.23310663
  12       0.00000000
  13       0.00000000
  14       0.38828009
  15      -0.00000000
  16      -0.00000000
  17      -0.46756643
  18       0.00000000
  19      -0.00000000
  20       0.04309788
  21      -0.00000000
  22       0.00000000
  23      -0.44566687
  24      -0.02635463
  25      -0.02635463
  26       0.00000000
  27       0.00000000
  28      -0.00000000
  29       0.05262186
  30      -0.08954934
  31      -0.08954934
  32      -0.00000000
  33      -0.00000000
  34       0.00000000
  35       0.66011549
  36       0.08494489
  37      -1.00157746
  38       0.63028484
  39       0.06495968
  40       0.11441986
  41       0.03802248
  42      -0.03598220
  43      -0.00342153
  44       0.00016743
  45       1.23310663
  46      -0.00000000
  47      -0.00000000
  48      -0.38828009
  49       0.00000000
  50       0.00000000
  51       0.46756643
  52      -0.00000000
  53       0.00000000
  54      -0.04309788
  55       0.00000000
  56      -0.00000000
  57      -0.44566687
  58      -0.02635463
  59      -0.02635463
  60       0.00000000
  61       0.00000000
  62       0.00000000
  63       0.05262186
  64      -0.08954934
  65      -0.08954934
  66      -0.00000000
  67      -0.00000000
  68      -0.00000000
Ene=     6.66117E-03
Spin= Alpha
Occup=   0.0000000000
   1      -0.00000000
   2      -0.00000000
   3      -0.00000000
   4      -0.00000000
   5       0.00000000
   6       0.00000000
   7      -0.00000000
   8      -0.00000000
   9      -0.00000000
  10       0.00000000
  11       0.00000000
  12       0.02629407
  13      -0.01044292
  14      -0.00000000
  15      -0.07915826
  16       0.03143839
  17      -0.00000000
  18       0.27043659
  19      -0.10740624
  20      -0.00000000
  21       0.38871645
  22      -0.15438211
  23       0.00000000
  24      -0.00000000
  25      -0.00000000
  26      -0.01245293
  27       0.00494579
  28       0.00000000
  29      -0.00000000
  30      -0.00000000
  31      -0.00000000
  32       0.03620941
  33      -0.01438088
  34      -0.00000000
  35      -0.00000000
  36      -0.00000000
  37       0.00000000
  38      -0.00000000
  39      -0.00000000
  40      -0.00000000
  41       0.00000000
  42      -0.00000000
  43       0.00000000
  44      -0.00000000
  45      -0.00000000
  46       0.02629407
  47      -0.01044292
  48       0.00000000
  49      -0.07915826
  50       0.03143839
  51      -0.00000000
  52       0.27043659
  53      -0.10740624
  54       0.00000000
  55       0.38871645
  56      -0.15438211
  57       0.00000000
  58       0.00000000
  59       0.00000000
  60       0.01245293
  61      -0.00494579
  62      -0.00000000
  63       0.00000000
  64       0.00000000
  65       0.00000000
  66      -0.03620941
  67       0.01438088
  68       0.00000000
Ene=     6.66117E-03
Spin= Alpha
Occup=   0.0000000000
   1       0.00000000
   2       0.00000000
   3       0.00000000
   4      -0.00000000
   5      -0.00000000
   6      -0.00000000
   7       0.00000000
   8      -0.00000000
   9      -0.00000000
  10       0.00000000
  11       0.00000000
  12       0.01044292
  13       0.02629407
  14      -0.00000000
  15      -0.03143839
  16      -0.07915826
  17       0.00000000
  18       0.10740624
  19       0.27043659
  20      -0.00000000
  21       0.15438211
  22       0.38871645
  23       0.00000000
  24       0.00000000
  25       0.00000000
  26      -0.00494579
  27      -0.01245293
  28       0.00000000
  29       0.00000000
  30       0.00000000
  31       0.00000000
  32       0.01438088
  33       0.03620941
  34      -0.00000000
  35       0.00000000
  36       0.00000000
  37      -0.00000000
  38      -0.00000000
  39       0.00000000
  40       0.00000000
  41      -0.00000000
  42       0.00000000
  43      -0.00000000
  44       0.00000000
  45      -0.00000000
  46       0.01044292
  47       0.02629407
  48       0.00000000
  49      -0.03143839
  50      -0.07915826
  51       0.00000000
  52       0.10740624
  53       0.27043659
  54       0.00000000
  55       0.15438211
  56       0.38871645
  57      -0.00000000
  58      -0.00000000
  59      -0.00000000
  60       0.00494579
  61       0.01245293
  62       0.00000000
  63      -0.00000000
  64      -0.00000000
  65      -0.00000000
  66      -0.01438088
  67      -0.03620941
  68      -0.00000000
Ene=     8.99207E-03
Spin= Alpha
Occup=   0.0000000000
   1       0.00000000
   2      -0.00000000
   3       0.00000000
   4      -0.00000000
   5       0.00000000
   6       0.00000000
   7      -0.00000000
   8      -0.00000000
   9      -0.00000000
  10       0.00000000
  11       0.00000000
  12      -0.04358151
  13       0.08184329
  14      -0.00000000
  15      -0.02379890
  16       0.04469281
  17       0.00000000
  18      -0.01899186
  19       0.03566550
  20       0.00000000
  21      -0.34729465
  22       0.65219718
  23       0.00000000
  24       0.00000000
  25       0.00000000
  26      -0.00706983
  27       0.01327668
  28      -0.00000000
  29       0.00000000
  30       0.00000000
  31       0.00000000
  32      -0.01271733
  33       0.02388234
  34       0.00000000
  35      -0.00000000
  36       0.00000000
  37      -0.00000000
  38       0.00000000
  39      -0.00000000
  40       0.00000000
  41      -0.00000000
  42      -0.00000000
  43       0.00000000
  44      -0.00000000
  45      -0.00000000
  46       0.04358151
  47      -0.08184329
  48      -0.00000000
  49       0.02379890
  50      -0.04469281
  51       0.00000000
  52       0.01899186
  53      -0.03566550
  54      -0.00000000
  55       0.34729465
  56      -0.65219718
  57       0.00000000
  58      -0.00000000
  59      -0.00000000
  60      -0.00706983
  61       0.01327668
  62       0.00000000
  63       0.00000000
  64      -0.00000000
  65       0.00000000
  66      -0.01271733
  67       0.02388234
  68      -0.00000000
Ene=     8.99207E-03
Spin= Alpha
Occup=   0.0000000000
   1       0.00000000
   2      -0.00000000
   3       0.00000000
   4      -0.00000000
   5       0.00000000
   6      -0.00000000
   7      -0.00000000
   8       0.00000000
   9      -0.00000000
  10       0.00000000
  11      -0.00000000
  12      -0.08184329
  13      -0.04358151
  14      -0.00000000
  15      -0.04469281
  16      -0.02379890
  17       0.00000000
  18      -0.03566550
  19      -0.01899186
  20      -0.00000000
  21      -0.65219718
  22      -0.34729465
  23      -0.00000000
  24      -0.00000000
  25      -0.00000000
  26      -0.01327668
  27      -0.00706983
  28      -0.00000000
  29      -0.00000000
  30      -0.00000000
  31      -0.00000000
  32      -0.02388234
  33      -0.01271733
  34       0.00000000
  35      -0.00000000
  36       0.00000000
  37       0.00000000
  38      -0.00000000
  39       0.00000000
  40      -0.00000000
  41       0.00000000
  42      -0.00000000
  43      -0.00000000
  44       0.00000000
  45       0.00000000
  46       0.08184329
  47       0.04358151
  48      -0.00000000
  49       0.04469281
  50       0.02379890
  51      -0.00000000
  52       0.03566550
  53       0.01899186
  54       0.00000000
  55       0.65219718
  56       0.34729465
  57      -0.00000000
  58       0.00000000
  59       0.00000000
  60      -0.01327668
  61      -0.00706983
  62       0.00000000
  63       0.00000000
  64       0.00000000
  65       0.00000000
  66      -0.02388234
  67      -0.01271733
  68      -0.00000000
Ene=     9.64319E-03
Spin= Alpha
Occup=   0.0000000000
   1      -0.03082404
   2      -0.00258545
   3       2.29320768
   4       0.20657871
   5      -0.56959000
   6      -0.02442154
   7      -0.08123919
   8       0.05388398
   9       0.00175899
  10       0.00023330
  11       0.14404645
  12      -0.00000000
  13      -0.00000000
  14      -0.01694484
  15       0.00000000
  16       0.00000000
  17       0.87940127
  18       0.00000000
  19      -0.00000000
  20       0.36776691
  21       0.00000000
  22       0.00000000
  23       0.10913761
  24       0.17722209
  25       0.17722209
  26      -0.00000000
  27      -0.00000000
  28      -0.00000000
  29       0.26327030
  30       0.13107549
  31       0.13107549
  32       0.00000000
  33       0.00000000
  34       0.00000000
  35       0.03082404
  36       0.00258545
  37      -2.29320768
  38      -0.20657871
  39       0.56959000
  40       0.02442154
  41       0.08123919
  42      -0.05388398
  43      -0.00175899
  44      -0.00023330
  45       0.14404645
  46       0.00000000
  47       0.00000000
  48      -0.01694484
  49      -0.00000000
  50      -0.00000000
  51       0.87940127
  52       0.00000000
  53       0.00000000
  54       0.36776691
  55      -0.00000000
  56      -0.00000000
  57      -0.10913761
  58      -0.17722209
  59      -0.17722209
  60      -0.00000000
  61      -0.00000000
  62      -0.00000000
  63      -0.26327030
  64      -0.13107549
  65      -0.13107549
  66       0.00000000
  67       0.00000000
  68       0.00000000
Ene=     9.93599E-03
Spin= Alpha
Occup=   0.0000000000
   1       0.39208963
   2      -0.27823251
   3      -0.52328145
   4       1.15038615
   5      -0.59439951
   6       0.05301986
   7      -0.06762463
   8       0.03742220
   9      -0.00032472
  10       0.00038216
  11      -1.43904312
  12      -0.00000000
  13      -0.00000000
  14       0.39159453
  15       0.00000000
  16       0.00000000
  17      -0.56555274
  18      -0.00000000
  19      -0.00000000
  20       0.73821514
  21      -0.00000000
  22       0.00000000
  23      -0.46754892
  24       0.02452642
  25       0.02452642
  26      -0.00000000
  27      -0.00000000
  28       0.00000000
  29       0.22211343
  30       0.08451718
  31       0.08451718
  32       0.00000000
  33       0.00000000
  34      -0.00000000
  35       0.39208963
  36      -0.27823251
  37      -0.52328145
  38       1.15038615
  39      -0.59439951
  40       0.05301986
  41      -0.06762463
  42       0.03742220
  43      -0.00032472
  44       0.00038216
  45       1.43904312
  46       0.00000000
  47       0.00000000
  48      -0.39159453
  49      -0.00000000
  50      -0.00000000
  51       0.56555274
  52       0.00000000
  53       0.00000000
  54      -0.73821514
  55       0.00000000
  56      -0.00000000
  57      -0.46754892
  58       0.02452642
  59       0.02452642
  60      -0.00000000
  61      -0.00000000
  62      -0.00000000
  63       0.22211343
  64       0.08451718
  65       0.08451718
  66       0.00000000
  67       0.00000000
  68       0.00000000
Ene=     1.38819E-02
Spin= Alpha
Occup=   0.0000000000
   1      -0.00000000
   2       0.00000000
   3      -0.00000000
   4       0.00000000
   5      -0.00000000
   6       0.00000000
   7      -0.00000000
   8       0.00000000
   9      -0.00000000
  10      -0.00000000
  11       0.00000000
  12       0.06272462
  13       0.03595955
  14      -0.00000000
  15      -0.20244639
  16      -0.11606097
  17      -0.00000000
  18       0.85186545
  19       0.48836799
  20       0.00000000
  21      -0.81464309
  22      -0.46702869
  23       0.00000000
  24       0.00000000
  25       0.00000000
  26      -0.01844221
  27      -0.01057278
  28       0.00000000
  29       0.00000000
  30       0.00000000
  31       0.00000000
  32       0.07275985
  33       0.04171267
  34       0.00000000
  35       0.00000000
  36       0.00000000
  37       0.00000000
  38      -0.00000000
  39       0.00000000
  40      -0.00000000
  41      -0.00000000
  42      -0.00000000
  43       0.00000000
  44      -0.00000000
  45       0.00000000
  46       0.06272462
  47       0.03595955
  48       0.00000000
  49      -0.20244639
  50      -0.11606097
  51      -0.00000000
  52       0.85186545
  53       0.48836799
  54       0.00000000
  55      -0.81464309
  56      -0.46702869
  57      -0.00000000
  58      -0.00000000
  59      -0.00000000
  60       0.01844221
  61       0.01057278
  62      -0.00000000
  63      -0.00000000
  64      -0.00000000
  65      -0.00000000
  66      -0.07275985
  67      -0.04171267
  68       0.00000000
Ene=     1.38819E-02
Spin= Alpha
Occup=   0.0000000000
   1       0.00000000
   2      -0.00000000
   3      -0.00000000
   4       0.00000000
   5      -0.00000000
   6       0.00000000
   7      -0.00000000
   8       0.00000000
   9      -0.00000000
  10       0.00000000
  11      -0.00000000
  12      -0.03595955
  13       0.06272462
  14       0.00000000
  15       0.11606097
  16      -0.20244639
  17      -0.00000000
  18      -0.48836799
  19       0.85186545
  20      -0.00000000
  21       0.46702869
  22      -0.81464309
  23      -0.00000000
  24       0.00000000
  25       0.00000000
  26       0.01057278
  27      -0.01844221
  28      -0.00000000
  29       0.00000000
  30       0.00000000
  31       0.00000000
  32      -0.04171267
  33       0.07275985
  34       0.00000000
  35       0.00000000
  36      -0.00000000
  37       0.00000000
  38       0.00000000
  39      -0.00000000
  40      -0.00000000
  41       0.00000000
  42      -0.00000000
  43       0.00000000
  44      -0.00000000
  45       0.00000000
  46      -0.03595955
  47       0.06272462
  48      -0.00000000
  49       0.11606097
  50      -0.20244639
  51       0.00000000
  52      -0.48836799
  53       0.85186545
  54      -0.00000000
  55       0.46702869
  56      -0.81464309
  57      -0.00000000
  58       0.00000000
  59       0.00000000
  60      -0.01057278
  61       0.01844221
  62       0.00000000
  63       0.00000000
  64       0.00000000
  65       0.00000000
  66       0.04171267
  67      -0.07275985
  68      -0.00000000
Ene=     1.45095E-02
Spin= Alpha
Occup=   0.0000000000
   1       0.16252289
   2      -0.07346380
   3      -0.28011198
   4       1.42540556
   5      -0.85127391
   6      -0.01307565
   7      -0.09229692
   8       0.05978261
   9       0.00173100
  10       0.00029323
  11      -0.65087075
  12      -0.00000000
  13      -0.00000000
  14       0.08278872
  15       0.00000000
  16       0.00000000
  17      -0.27852960
  18      -0.00000000
  19      -0.00000000
  20      -0.22351369
  21       0.00000000
  22       0.00000000
  23      -0.20575149
  24       0.01221628
  25       0.01221628
  26      -0.00000000
  27      -0.00000000
  28       0.00000000
  29       0.04292399
  30       0.04708559
  31       0.04708559
  32       0.00000000
  33       0.00000000
  34      -0.00000000
  35       0.16252289
  36      -0.07346380
  37      -0.28011198
  38       1.42540556
  39      -0.85127391
  40      -0.01307565
  41      -0.09229692
  42       0.05978261
  43       0.00173100
  44       0.00029323
  45       0.65087075
  46       0.00000000
  47       0.00000000
  48      -0.08278872
  49      -0.00000000
  50      -0.00000000
  51       0.27852960
  52       0.00000000
  53       0.00000000
  54       0.22351369
  55      -0.00000000
  56       0.00000000
  57      -0.20575149
  58       0.01221628
  59       0.01221628
  60      -0.00000000
  61      -0.00000000
  62      -0.00000000
  63       0.04292399
  64       0.04708559
  65       0.04708559
  66       0.00000000
  67       0.00000000
  68       0.00000000
Ene=     1.48776E-02
Spin= Alpha
Occup=   0.0000000000
   1      -0.00975225
   2      -0.04868572
   3      -0.52329502
   4       0.33277886
   5      -0.12583576
   6       0.06784800
   7      -0.00661717
   8      -0.00260621
   9      -0.00152652
  10       0.00019297
  11       0.04208941
  12      -0.00000000
  13       0.00000000
  14       0.09496128
  15       0.00000000
  16      -0.00000000
  17      -0.47457888
  18      -0.00000000
  19      -0.00000000
  20       1.02099099
  21       0.00000000
  22       0.00000000
  23       0.06828665
  24       0.02194030
  25       0.02194030
  26      -0.00000000
  27       0.00000000
  28      -0.00000000
  29       0.10292782
  30       0.15024167
  31       0.15024167
  32      -0.00000000
  33      -0.00000000
  34       0.00000000
  35       0.00975225
  36       0.04868572
  37       0.52329502
  38      -0.33277886
  39       0.12583576
  40      -0.06784800
  41       0.00661717
  42       0.00260621
  43       0.00152652
  44      -0.00019297
  45       0.04208941
  46       0.00000000
  47      -0.00000000
  48       0.09496128
  49       0.00000000
  50       0.00000000
  51      -0.47457888
  52      -0.00000000
  53      -0.00000000
  54       1.02099099
  55       0.00000000
  56       0.00000000
  57      -0.06828665
  58      -0.02194030
  59      -0.02194030
  60      -0.00000000
  61       0.00000000
  62       0.00000000
  63      -0.10292782
  64      -0.15024167
  65      -0.15024167
  66      -0.00000000
  67      -0.00000000
  68      -0.00000000
Ene=     1.83606E-02
Spin= Alpha
Occup=   0.0000000000
   1       0.02109599
   2      -0.05307562
   3      -4.26263668
   4       2.69471173
   5      -1.16487222
   6       0.03557834
   7      -0.10536265
   8       0.06313074
   9       0.00080274
  10       0.00045741
  11      -0.10339335
  12      -0.00000000
  13       0.00000000
  14       0.09950827
  15       0.00000000
  16      -0.00000000
  17      -1.85577227
  18      -0.00000000
  19       0.00000000
  20       0.12544466
  21       0.00000000
  22      -0.00000000
  23      -0.03403565
  24      -0.16127181
  25      -0.16127181
  26      -0.00000000
  27       0.00000000
  28       0.00000000
  29      -0.18102321
  30       0.02332784
  31       0.02332784
  32       0.00000000
  33      -0.00000000
  34      -0.00000000
  35      -0.02109599
  36       0.05307562
  37       4.26263668
  38      -2.69471173
  39       1.16487222
  40      -0.03557834
  41       0.10536265
  42      -0.06313074
  43      -0.00080274
  44      -0.00045741
  45      -0.10339335
  46       0.00000000
  47      -0.00000000
  48       0.09950827
  49      -0.00000000
  50       0.00000000
  51      -1.85577227
  52       0.00000000
  53      -0.00000000
  54       0.12544466
  55      -0.00000000
  56       0.00000000
  57       0.03403565
  58       0.16127181
  59       0.16127181
  60      -0.00000000
  61       0.00000000
  62      -0.00000000
  63       0.18102321
  64      -0.02332784
  65      -0.02332784
  66       0.00000000
  67      -0.00000000
  68       0.00000000
Ene=     2.03311E-02
Spin= Alpha
Occup=   0.0000000000
   1      -0.00000000
   2       0.00000000
   3       0.00000000
   4      -0.00000000
   5       0.00000000
   6      -0.00000000
   7       0.00000000
   8      -0.00000000
   9       0.00000000
  10       0.00000000
  11       0.00000000
  12       2.96356573
  13       5.72351709
  14       0.00000000
  15      -0.66129884
  16      -1.27716256
  17      -0.00000000
  18       0.78472437
  19       1.51553357
  20       0.00000000
  21      -0.37643491
  22      -0.72700652
  23       0.00000000
  24      -0.00000000
  25      -0.00000000
  26       0.56518285
  27       1.09153431
  28       0.00000000
  29       0.00000000
  30       0.00000000
  31       0.00000000
  32      -0.12883543
  33      -0.24881910
  34      -0.00000000
  35       0.00000000
  36      -0.00000000
  37       0.00000000
  38       0.00000000
  39      -0.00000000
  40      -0.00000000
  41      -0.00000000
  42       0.00000000
  43      -0.00000000
  44       0.00000000
  45      -0.00000000
  46      -2.96356573
  47      -5.72351709
  48       0.00000000
  49       0.66129884
  50       1.27716256
  51      -0.00000000
  52      -0.78472437
  53      -1.51553357
  54       0.00000000
  55       0.37643491
  56       0.72700652
  57       0.00000000
  58       0.00000000
  59       0.00000000
  60       0.56518285
  61       1.09153431
  62      -0.00000000
  63      -0.00000000
  64       0.00000000
  65       0.00000000
  66      -0.12883543
  67      -0.24881910
  68       0.00000000
Ene=     2.03311E-02
Spin= Alpha
Occup=   0.0000000000
   1       0.00000000
   2      -0.00000000
   3       0.00000000
   4      -0.00000000
   5       0.00000000
   6       0.00000000
   7       0.00000000
   8      -0.00000000
   9      -0.00000000
  10       0.00000000
  11      -0.00000000
  12      -5.72351709
  13       2.96356573
  14      -0.00000000
  15       1.27716256
  16      -0.66129884
  17       0.00000000
  18      -1.51553357
  19       0.78472437
  20       0.00000000
  21       0.72700652
  22      -0.37643491
  23      -0.00000000
  24      -0.00000000
  25       0.00000000
  26      -1.09153431
  27       0.56518285
  28      -0.00000000
  29      -0.00000000
  30      -0.00000000
  31      -0.00000000
  32       0.24881910
  33      -0.12883543
  34       0.00000000
  35      -0.00000000
  36       0.00000000
  37      -0.00000000
  38       0.00000000
  39      -0.00000000
  40      -0.00000000
  41      -0.00000000
  42       0.00000000
  43       0.00000000
  44      -0.00000000
  45       0.00000000
  46       5.72351709
  47      -2.96356573
  48      -0.00000000
  49      -1.27716256
  50       0.66129884
  51       0.00000000
  52       1.51553357
  53      -0.78472437
  54      -0.00000000
  55      -0.72700652
  56       0.37643491
  57      -0.00000000
  58       0.00000000
  59       0.00000000
  60      -1.09153431
  61       0.56518285
  62       0.00000000
  63       0.00000000
  64       0.00000000
  65       0.00000000
  66       0.24881910
  67      -0.12883543
  68      -0.00000000
Ene=     2.52887E-02
Spin= Alpha
Occup=   0.0000000000
   1       1.17364358
   2      -1.39974950
   3       1.82420854
   4      -1.23964548
   5       0.43325904
   6       0.04630616
   7       0.03111377
   8      -0.02415597
   9      -0.00156390
  10       0.00000036
  11      -4.13547214
  12      -0.00000000
  13       0.00000000
  14       1.09181175
  15       0.00000000
  16      -0.00000000
  17      -1.19222575
  18       0.00000000
  19       0.00000000
  20       0.62643303
  21      -0.00000000
  22       0.00000000
  23      -1.36401006
  24       0.06218383
  25       0.06218383
  26      -0.00000000
  27       0.00000000
  28       0.00000000
  29       0.73011990
  30       0.30749695
  31       0.30749695
  32       0.00000000
  33      -0.00000000
  34      -0.00000000
  35       1.17364358
  36      -1.39974950
  37       1.82420854
  38      -1.23964548
  39       0.43325904
  40       0.04630616
  41       0.03111377
  42      -0.02415597
  43      -0.00156390
  44       0.00000036
  45       4.13547214
  46       0.00000000
  47      -0.00000000
  48      -1.09181175
  49      -0.00000000
  50       0.00000000
  51       1.19222575
  52       0.00000000
  53      -0.00000000
  54      -0.62643303
  55       0.00000000
  56       0.00000000
  57      -1.36401006
  58       0.06218383
  59       0.06218383
  60      -0.00000000
  61       0.00000000
  62      -0.00000000
  63       0.73011990
  64       0.30749695
  65       0.30749695
  66       0.00000000
  67      -0.00000000
  68       0.00000000
Ene=     2.74197E-02
Spin= Alpha
Occup=   0.0000000000
   1       0.06491082
   2       0.34753828
   3       1.25763714
   4       0.33959276
   5      -0.13021263
   6      -0.02568436
   7      -0.00984501
   8       0.00857714
   9       0.00069713
  10      -0.00001961
  11      -0.28231693
  12       0.00000000
  13      -0.00000000
  14      -0.72541819
  15      -0.00000000
  16       0.00000000
  17       3.11299497
  18       0.00000000
  19      -0.00000000
  20      -0.77814284
  21      -0.00000000
  22      -0.00000000
  23      -0.44009106
  24      -0.16419438
  25      -0.16419438
  26       0.00000000
  27      -0.00000000
  28       0.00000000
  29      -0.77702358
  30      -0.99839595
  31      -0.99839595
  32      -0.00000000
  33       0.00000000
  34      -0.00000000
  35      -0.06491082
  36      -0.34753828
  37      -1.25763714
  38      -0.33959276
  39       0.13021263
  40       0.02568436
  41       0.00984501
  42      -0.00857714
  43      -0.00069713
  44       0.00001961
  45      -0.28231693
  46      -0.00000000
  47       0.00000000
  48      -0.72541819
  49       0.00000000
  50      -0.00000000
  51       3.11299497
  52      -0.00000000
  53       0.00000000
  54      -0.77814284
  55       0.00000000
  56      -0.00000000
  57       0.44009106
  58       0.16419438
  59       0.16419438
  60       0.00000000
  61      -0.00000000
  62      -0.00000000
  63       0.77702358
  64       0.99839595
  65       0.99839595
  66      -0.00000000
  67       0.00000000
  68       0.00000000
Ene=     2.97367E-02
Spin= Alpha
Occup=   0.0000000000
   1      -5.34705972
   2      -2.33334170
   3       4.78764920
   4      -2.10215188
   5       0.44329939
   6       0.11139087
   7       0.02070124
   8      -0.02399624
   9      -0.00293678
  10       0.00019346
  11       4.44565356
  12       0.00000000