 Molden2AIM, Version 3.1.0 (02/25/2015)           Time: Thu Oct 17 19:55:39 2024
GAUSSIAN             68 MOL ORBITALS     68 PRIMITIVES        2 NUCLEI
  Be   1    (CENTRE  1)   0.00000000  0.00000000  0.00000000  CHARGE =  4.0
  Be   2    (CENTRE  2)  48.80000000  0.00000000  0.00000000  CHARGE =  4.0
CENTRE ASSIGNMENTS    1  1  1  1  1  1  1  1  1  1  1  1  1  1  1  1  1  1  1  1
CENTRE ASSIGNMENTS    1  1  1  1  1  1  1  1  1  1  1  1  1  1  2  2  2  2  2  2
CENTRE ASSIGNMENTS    2  2  2  2  2  2  2  2  2  2  2  2  2  2  2  2  2  2  2  2
CENTRE ASSIGNMENTS    2  2  2  2  2  2  2  2
TYPE ASSIGNMENTS      1  1  1  1  1  1  1  1  1  1  2  3  4  2  3  4  2  3  4  2
TYPE ASSIGNMENTS      3  4  5  6  7  8  9 10  5  6  7  8  9 10  1  1  1  1  1  1
TYPE ASSIGNMENTS      1  1  1  1  2  3  4  2  3  4  2  3  4  2  3  4  5  6  7  8
TYPE ASSIGNMENTS      9 10  5  6  7  8  9 10
EXPONENTS  0.1000000D-03 0.3000000D-03 0.9000000D-03 0.2700000D-02 0.8100000D-02
EXPONENTS  0.2430000D-01 0.7290000D-01 0.2187000D+00 0.6561000D+00 0.1968300D+01
EXPONENTS  0.1000000D-03 0.1000000D-03 0.1000000D-03 0.3000000D-03 0.3000000D-03
EXPONENTS  0.3000000D-03 0.9000000D-03 0.9000000D-03 0.9000000D-03 0.2700000D-02
EXPONENTS  0.2700000D-02 0.2700000D-02 0.1000000D-03 0.1000000D-03 0.1000000D-03
EXPONENTS  0.1000000D-03 0.1000000D-03 0.1000000D-03 0.3000000D-03 0.3000000D-03
EXPONENTS  0.3000000D-03 0.3000000D-03 0.3000000D-03 0.3000000D-03 0.1000000D-03
EXPONENTS  0.3000000D-03 0.9000000D-03 0.2700000D-02 0.8100000D-02 0.2430000D-01
EXPONENTS  0.7290000D-01 0.2187000D+00 0.6561000D+00 0.1968300D+01 0.1000000D-03
EXPONENTS  0.1000000D-03 0.1000000D-03 0.3000000D-03 0.3000000D-03 0.3000000D-03
EXPONENTS  0.9000000D-03 0.9000000D-03 0.9000000D-03 0.2700000D-02 0.2700000D-02
EXPONENTS  0.2700000D-02 0.1000000D-03 0.1000000D-03 0.1000000D-03 0.1000000D-03
EXPONENTS  0.1000000D-03 0.1000000D-03 0.3000000D-03 0.3000000D-03 0.3000000D-03
EXPONENTS  0.3000000D-03 0.3000000D-03 0.3000000D-03
MO    1     MO 0.0        OCC NO =    1.0000000  ORB. ENERGY =   -0.000334
  0.30985947D-04  0.11643283D-03 -0.48094420D-03 -0.19116490D-02 -0.43723762D-02
 -0.78986884D-02 -0.10732537D-01  0.19952703D-01  0.31784431D-02 -0.12263902D-03
 -0.13413017D-06 -0.00000000D+00  0.00000000D+00 -0.48213696D-06  0.00000000D+00
  0.00000000D+00 -0.15616275D-05 -0.00000000D+00 -0.00000000D+00 -0.15400867D-03
  0.00000000D+00  0.00000000D+00 -0.12911886D-08 -0.96378984D-09 -0.96378984D-09
 -0.00000000D+00  0.00000000D+00 -0.00000000D+00 -0.39159809D-07 -0.24522498D-07
 -0.24522498D-07  0.00000000D+00  0.00000000D+00  0.00000000D+00  0.30985947D-04
  0.11643283D-03 -0.48094420D-03 -0.19116490D-02 -0.43723762D-02 -0.78986884D-02
 -0.10732537D-01  0.19952703D-01  0.31784431D-02 -0.12263902D-03  0.13413017D-06
  0.00000000D+00 -0.00000000D+00  0.48213696D-06 -0.00000000D+00 -0.00000000D+00
  0.15616275D-05  0.00000000D+00  0.00000000D+00  0.15400867D-03 -0.00000000D+00
 -0.00000000D+00 -0.12911886D-08 -0.96378984D-09 -0.96378984D-09 -0.00000000D+00
  0.00000000D+00  0.00000000D+00 -0.39159809D-07 -0.24522498D-07 -0.24522498D-07
  0.00000000D+00  0.00000000D+00 -0.00000000D+00
MO    2     MO 0.0        OCC NO =    0.0000000  ORB. ENERGY =    0.000054
 -0.15062809D-04  0.22882911D-02 -0.29813258D-04  0.26415276D-02  0.44354932D-02
  0.90365978D-02  0.11421143D-01 -0.21584860D-01 -0.35866424D-02  0.18066012D-03
  0.27663649D-06  0.00000000D+00 -0.00000000D+00  0.40165250D-04 -0.00000000D+00
 -0.00000000D+00 -0.21221826D-04  0.00000000D+00  0.00000000D+00  0.17366184D-03
 -0.00000000D+00 -0.00000000D+00  0.29426828D-08  0.26567498D-08  0.26567498D-08
  0.00000000D+00 -0.00000000D+00  0.00000000D+00  0.24756495D-06  0.47513795D-07
  0.47513795D-07 -0.00000000D+00  0.00000000D+00 -0.00000000D+00  0.15062809D-04
 -0.22882911D-02  0.29813258D-04 -0.26415276D-02 -0.44354932D-02 -0.90365978D-02
 -0.11421143D-01  0.21584860D-01  0.35866424D-02 -0.18066012D-03  0.27663649D-06
 -0.00000000D+00  0.00000000D+00  0.40165250D-04  0.00000000D+00  0.00000000D+00
 -0.21221826D-04 -0.00000000D+00 -0.00000000D+00  0.17366184D-03  0.00000000D+00
  0.00000000D+00 -0.29426828D-08 -0.26567498D-08 -0.26567498D-08  0.00000000D+00
 -0.00000000D+00  0.00000000D+00 -0.24756495D-06 -0.47513795D-07 -0.47513795D-07
 -0.00000000D+00  0.00000000D+00 -0.00000000D+00
MO    3     MO 0.0        OCC NO =    0.0000000  ORB. ENERGY =    0.005151
  0.43710919D-03  0.26129587D-03 -0.34549481D-02  0.46779446D-02  0.20484717D-02
  0.63870094D-02  0.56589742D-02 -0.11696784D-01 -0.23575970D-02  0.22849585D-03
 -0.12051293D-04  0.00000000D+00 -0.00000000D+00  0.16168870D-04 -0.00000000D+00
  0.00000000D+00 -0.10563416D-03  0.00000000D+00 -0.00000000D+00  0.59924762D-04
  0.00000000D+00  0.00000000D+00 -0.63939580D-07 -0.48745517D-08 -0.48745517D-08
  0.00000000D+00 -0.00000000D+00  0.00000000D+00 -0.18338369D-07 -0.10905153D-06
 -0.10905153D-06 -0.00000000D+00 -0.00000000D+00 -0.00000000D+00  0.43710919D-03
  0.26129587D-03 -0.34549481D-02  0.46779446D-02  0.20484717D-02  0.63870094D-02
  0.56589742D-02 -0.11696784D-01 -0.23575970D-02  0.22849585D-03  0.12051293D-04
 -0.00000000D+00  0.00000000D+00 -0.16168870D-04  0.00000000D+00  0.00000000D+00
  0.10563416D-03 -0.00000000D+00 -0.00000000D+00 -0.59924762D-04  0.00000000D+00
  0.00000000D+00 -0.63939580D-07 -0.48745517D-08 -0.48745517D-08 -0.00000000D+00
 -0.00000000D+00 -0.00000000D+00 -0.18338369D-07 -0.10905153D-06 -0.10905153D-06
 -0.00000000D+00 -0.00000000D+00  0.00000000D+00
MO    4     MO 0.0        OCC NO =    0.0000000  ORB. ENERGY =    0.011235
  0.21958356D-04 -0.85869062D-02  0.38980458D-02  0.27006271D-02 -0.11428997D-01
 -0.29688920D-02 -0.95105757D-02  0.15353195D-01  0.15937002D-02  0.19609215D-03
  0.13653206D-05 -0.00000000D+00  0.00000000D+00 -0.13862103D-03 -0.00000000D+00
  0.00000000D+00  0.74921817D-04 -0.00000000D+00  0.00000000D+00  0.40207253D-03
 -0.00000000D+00  0.00000000D+00  0.13936063D-07  0.10772186D-07  0.10772186D-07
 -0.00000000D+00  0.00000000D+00 -0.00000000D+00 -0.55539160D-06  0.13714460D-06
  0.13714460D-06 -0.00000000D+00  0.00000000D+00  0.00000000D+00 -0.21958356D-04
  0.85869062D-02 -0.38980458D-02 -0.27006271D-02  0.11428997D-01  0.29688920D-02
  0.95105757D-02 -0.15353195D-01 -0.15937002D-02 -0.19609215D-03  0.13653206D-05
  0.00000000D+00 -0.00000000D+00 -0.13862103D-03  0.00000000D+00 -0.00000000D+00
  0.74921817D-04  0.00000000D+00  0.00000000D+00  0.40207253D-03 -0.00000000D+00
  0.00000000D+00 -0.13936063D-07 -0.10772186D-07 -0.10772186D-07 -0.00000000D+00
  0.00000000D+00  0.00000000D+00  0.55539160D-06 -0.13714460D-06 -0.13714460D-06
 -0.00000000D+00  0.00000000D+00 -0.00000000D+00
MO    5     MO 0.0        OCC NO =    0.0000000  ORB. ENERGY =    0.011340
 -0.00000000D+00  0.00000000D+00  0.00000000D+00  0.00000000D+00 -0.00000000D+00
 -0.00000000D+00 -0.00000000D+00  0.00000000D+00 -0.00000000D+00  0.00000000D+00
  0.00000000D+00  0.60083836D-06 -0.21860131D-06  0.00000000D+00 -0.63999435D-05
  0.23284728D-05  0.00000000D+00  0.84851285D-04 -0.30871194D-04  0.00000000D+00
  0.28033093D-03 -0.10199197D-03  0.00000000D+00  0.00000000D+00  0.00000000D+00
 -0.11466225D-07  0.41717217D-08 -0.00000000D+00  0.00000000D+00  0.00000000D+00
  0.00000000D+00  0.14204068D-06 -0.51678246D-07  0.00000000D+00 -0.00000000D+00
 -0.00000000D+00 -0.00000000D+00 -0.00000000D+00  0.00000000D+00  0.00000000D+00
  0.00000000D+00 -0.00000000D+00  0.00000000D+00 -0.00000000D+00 -0.00000000D+00
  0.60083836D-06 -0.21860131D-06  0.00000000D+00 -0.63999435D-05  0.23284728D-05
  0.00000000D+00  0.84851285D-04 -0.30871194D-04  0.00000000D+00  0.28033093D-03
 -0.10199197D-03  0.00000000D+00 -0.00000000D+00 -0.00000000D+00  0.11466225D-07
 -0.41717217D-08  0.00000000D+00 -0.00000000D+00 -0.00000000D+00 -0.00000000D+00
 -0.14204068D-06  0.51678246D-07 -0.00000000D+00
MO    6     MO 0.0        OCC NO =    0.0000000  ORB. ENERGY =    0.011340
 -0.00000000D+00  0.00000000D+00  0.00000000D+00  0.00000000D+00 -0.00000000D+00
 -0.00000000D+00 -0.00000000D+00  0.00000000D+00  0.00000000D+00 -0.00000000D+00
  0.00000000D+00 -0.21860131D-06 -0.60083836D-06  0.00000000D+00  0.23284728D-05
  0.63999435D-05  0.00000000D+00 -0.30871194D-04 -0.84851285D-04  0.00000000D+00
 -0.10199197D-03 -0.28033093D-03  0.00000000D+00  0.00000000D+00  0.00000000D+00
  0.41717217D-08  0.11466225D-07  0.00000000D+00  0.00000000D+00  0.00000000D+00
  0.00000000D+00 -0.51678246D-07 -0.14204068D-06 -0.00000000D+00 -0.00000000D+00
 -0.00000000D+00 -0.00000000D+00 -0.00000000D+00  0.00000000D+00  0.00000000D+00
  0.00000000D+00 -0.00000000D+00 -0.00000000D+00 -0.00000000D+00 -0.00000000D+00
 -0.21860131D-06 -0.60083836D-06  0.00000000D+00  0.23284728D-05  0.63999435D-05
 -0.00000000D+00 -0.30871194D-04 -0.84851285D-04  0.00000000D+00 -0.10199197D-03
 -0.28033093D-03  0.00000000D+00 -0.00000000D+00 -0.00000000D+00 -0.41717217D-08
 -0.11466225D-07 -0.00000000D+00 -0.00000000D+00 -0.00000000D+00 -0.00000000D+00
  0.51678246D-07  0.14204068D-06  0.00000000D+00
MO    7     MO 0.0        OCC NO =    0.0000000  ORB. ENERGY =    0.012341
  0.26450503D-04 -0.49269160D-03 -0.15724047D-02  0.11782798D-01 -0.15827417D-01
  0.18388018D-02 -0.99878060D-02  0.13471617D-01  0.21408045D-03  0.55773217D-03
 -0.12298982D-04  0.00000000D+00 -0.00000000D+00  0.12507789D-04 -0.00000000D+00
 -0.00000000D+00 -0.14545545D-03  0.00000000D+00 -0.00000000D+00  0.72027507D-03
 -0.00000000D+00 -0.00000000D+00 -0.51139953D-07  0.91188467D-08  0.91188467D-08
  0.00000000D+00 -0.00000000D+00 -0.00000000D+00  0.22962295D-06  0.20390942D-06
  0.20390942D-06 -0.00000000D+00 -0.00000000D+00  0.00000000D+00  0.26450503D-04
 -0.49269160D-03 -0.15724047D-02  0.11782798D-01 -0.15827417D-01  0.18388018D-02
 -0.99878060D-02  0.13471617D-01  0.21408045D-03  0.55773217D-03  0.12298982D-04
 -0.00000000D+00  0.00000000D+00 -0.12507789D-04  0.00000000D+00  0.00000000D+00
  0.14545545D-03 -0.00000000D+00 -0.00000000D+00 -0.72027507D-03 -0.00000000D+00
 -0.00000000D+00 -0.51139953D-07  0.91188467D-08  0.91188467D-08  0.00000000D+00
 -0.00000000D+00  0.00000000D+00  0.22962295D-06  0.20390942D-06  0.20390942D-06
 -0.00000000D+00 -0.00000000D+00 -0.00000000D+00
MO    8     MO 0.0        OCC NO =    0.0000000  ORB. ENERGY =    0.013550
  0.00000000D+00 -0.00000000D+00  0.00000000D+00 -0.00000000D+00  0.00000000D+00
 -0.00000000D+00  0.00000000D+00 -0.00000000D+00 -0.00000000D+00  0.00000000D+00
  0.00000000D+00 -0.13234571D-05 -0.30955008D-06 -0.00000000D+00  0.48584508D-05
  0.11363676D-05  0.00000000D+00 -0.15566347D-05 -0.36408956D-06 -0.00000000D+00
  0.61867715D-03  0.14470552D-03  0.00000000D+00 -0.00000000D+00 -0.00000000D+00
 -0.77942839D-08 -0.18230436D-08 -0.00000000D+00 -0.00000000D+00 -0.00000000D+00
 -0.00000000D+00  0.87378682D-07  0.20437443D-07  0.00000000D+00 -0.00000000D+00
  0.00000000D+00 -0.00000000D+00  0.00000000D+00 -0.00000000D+00  0.00000000D+00
 -0.00000000D+00  0.00000000D+00 -0.00000000D+00  0.00000000D+00 -0.00000000D+00
  0.13234571D-05  0.30955008D-06 -0.00000000D+00 -0.48584508D-05 -0.11363676D-05
  0.00000000D+00  0.15566347D-05  0.36408956D-06 -0.00000000D+00 -0.61867715D-03
 -0.14470552D-03  0.00000000D+00  0.00000000D+00  0.00000000D+00 -0.77942839D-08
 -0.18230436D-08  0.00000000D+00  0.00000000D+00  0.00000000D+00  0.00000000D+00
  0.87378682D-07  0.20437443D-07 -0.00000000D+00
MO    9     MO 0.0        OCC NO =    0.0000000  ORB. ENERGY =    0.013550
 -0.00000000D+00 -0.00000000D+00  0.00000000D+00 -0.00000000D+00  0.00000000D+00
  0.00000000D+00 -0.00000000D+00  0.00000000D+00 -0.00000000D+00  0.00000000D+00
  0.00000000D+00  0.30955008D-06 -0.13234571D-05 -0.00000000D+00 -0.11363676D-05
  0.48584508D-05  0.00000000D+00  0.36408956D-06 -0.15566347D-05 -0.00000000D+00
 -0.14470552D-03  0.61867715D-03  0.00000000D+00 -0.00000000D+00 -0.00000000D+00
  0.18230436D-08 -0.77942839D-08 -0.00000000D+00 -0.00000000D+00 -0.00000000D+00
 -0.00000000D+00 -0.20437443D-07  0.87378682D-07  0.00000000D+00 -0.00000000D+00
  0.00000000D+00 -0.00000000D+00  0.00000000D+00 -0.00000000D+00 -0.00000000D+00
  0.00000000D+00 -0.00000000D+00  0.00000000D+00 -0.00000000D+00 -0.00000000D+00
 -0.30955008D-06  0.13234571D-05 -0.00000000D+00  0.11363676D-05 -0.48584508D-05
  0.00000000D+00 -0.36408956D-06  0.15566347D-05 -0.00000000D+00  0.14470552D-03
 -0.61867715D-03  0.00000000D+00  0.00000000D+00  0.00000000D+00  0.18230436D-08
 -0.77942839D-08  0.00000000D+00  0.00000000D+00 -0.00000000D+00 -0.00000000D+00
 -0.20437443D-07  0.87378682D-07 -0.00000000D+00
MO   10     MO 0.0        OCC NO =    0.0000000  ORB. ENERGY =    0.017728
  0.14055014D-03 -0.29866377D-01  0.10155406D-01 -0.13432372D-01  0.10347852D-01
 -0.22251824D-02  0.47392980D-02 -0.57113656D-02  0.24417349D-03 -0.34610140D-03
  0.33738151D-06 -0.00000000D+00  0.00000000D+00 -0.50481730D-03  0.00000000D+00
 -0.00000000D+00  0.36518767D-03  0.00000000D+00  0.00000000D+00 -0.62550934D-03
 -0.00000000D+00 -0.00000000D+00  0.34544792D-09  0.27736762D-09  0.27736762D-09
 -0.00000000D+00  0.00000000D+00 -0.00000000D+00 -0.25998928D-05 -0.12238922D-06
 -0.12238922D-06  0.00000000D+00  0.00000000D+00  0.00000000D+00 -0.14055014D-03
  0.29866377D-01 -0.10155406D-01  0.13432372D-01 -0.10347852D-01  0.22251824D-02
 -0.47392980D-02  0.57113656D-02 -0.24417349D-03  0.34610140D-03  0.33738151D-06
  0.00000000D+00 -0.00000000D+00 -0.50481730D-03 -0.00000000D+00 -0.00000000D+00
  0.36518767D-03  0.00000000D+00  0.00000000D+00 -0.62550934D-03 -0.00000000D+00
 -0.00000000D+00 -0.34544792D-09 -0.27736762D-09 -0.27736762D-09 -0.00000000D+00
  0.00000000D+00  0.00000000D+00  0.25998928D-05  0.12238922D-06  0.12238922D-06
  0.00000000D+00  0.00000000D+00 -0.00000000D+00
MO   11     MO 0.0        OCC NO =    0.0000000  ORB. ENERGY =    0.017897
  0.00000000D+00  0.00000000D+00  0.00000000D+00 -0.00000000D+00  0.00000000D+00
 -0.00000000D+00  0.00000000D+00 -0.00000000D+00  0.00000000D+00  0.00000000D+00
 -0.00000000D+00  0.77357907D-06 -0.78269301D-06  0.00000000D+00 -0.88788715D-05
  0.89834772D-05  0.00000000D+00  0.14750191D-03 -0.14923970D-03 -0.00000000D+00
 -0.59918826D-03  0.60624757D-03 -0.00000000D+00  0.00000000D+00  0.00000000D+00
 -0.12287510D-07  0.12432275D-07 -0.00000000D+00  0.00000000D+00  0.00000000D+00
  0.00000000D+00  0.16304023D-06 -0.16496110D-06  0.00000000D+00  0.00000000D+00
 -0.00000000D+00 -0.00000000D+00  0.00000000D+00 -0.00000000D+00 -0.00000000D+00
 -0.00000000D+00 -0.00000000D+00  0.00000000D+00 -0.00000000D+00  0.00000000D+00
  0.77357907D-06 -0.78269301D-06  0.00000000D+00 -0.88788715D-05  0.89834772D-05
  0.00000000D+00  0.14750191D-03 -0.14923970D-03 -0.00000000D+00 -0.59918826D-03
  0.60624757D-03 -0.00000000D+00 -0.00000000D+00 -0.00000000D+00  0.12287510D-07
 -0.12432275D-07  0.00000000D+00 -0.00000000D+00  0.00000000D+00  0.00000000D+00
 -0.16304023D-06  0.16496110D-06 -0.00000000D+00
MO   12     MO 0.0        OCC NO =    0.0000000  ORB. ENERGY =    0.017897
 -0.00000000D+00  0.00000000D+00 -0.00000000D+00  0.00000000D+00 -0.00000000D+00
  0.00000000D+00 -0.00000000D+00  0.00000000D+00  0.00000000D+00 -0.00000000D+00
 -0.00000000D+00  0.78269301D-06  0.77357907D-06  0.00000000D+00 -0.89834772D-05
 -0.88788715D-05 -0.00000000D+00  0.14923970D-03  0.14750191D-03  0.00000000D+00
 -0.60624757D-03 -0.59918826D-03 -0.00000000D+00 -0.00000000D+00 -0.00000000D+00
 -0.12432275D-07 -0.12287510D-07 -0.00000000D+00  0.00000000D+00  0.00000000D+00
  0.00000000D+00  0.16496110D-06  0.16304023D-06  0.00000000D+00 -0.00000000D+00
 -0.00000000D+00  0.00000000D+00 -0.00000000D+00  0.00000000D+00 -0.00000000D+00
  0.00000000D+00 -0.00000000D+00  0.00000000D+00 -0.00000000D+00 -0.00000000D+00
  0.78269301D-06  0.77357907D-06  0.00000000D+00 -0.89834772D-05 -0.88788715D-05
 -0.00000000D+00  0.14923970D-03  0.14750191D-03  0.00000000D+00 -0.60624757D-03
 -0.59918826D-03  0.00000000D+00  0.00000000D+00  0.00000000D+00  0.12432275D-07
  0.12287510D-07  0.00000000D+00 -0.00000000D+00 -0.00000000D+00 -0.00000000D+00
 -0.16496110D-06 -0.16304023D-06 -0.00000000D+00
MO   13     MO 0.0        OCC NO =    0.0000000  ORB. ENERGY =    0.021236
  0.20928004D-03  0.67696578D-04 -0.61949205D-03  0.89004829D-02 -0.13059202D-01
 -0.10089789D-02 -0.70989675D-02  0.10763335D-01  0.85514757D-03  0.22907618D-03
 -0.58088784D-05  0.00000000D+00 -0.00000000D+00  0.53831219D-05  0.00000000D+00
  0.00000000D+00 -0.38481773D-04  0.00000000D+00 -0.00000000D+00 -0.27846833D-03
 -0.00000000D+00  0.00000000D+00 -0.30614616D-07 -0.25178833D-08 -0.25178833D-08
  0.00000000D+00 -0.00000000D+00 -0.00000000D+00 -0.31622928D-07 -0.38701320D-07
 -0.38701320D-07  0.00000000D+00 -0.00000000D+00  0.00000000D+00  0.20928004D-03
  0.67696578D-04 -0.61949205D-03  0.89004829D-02 -0.13059202D-01 -0.10089789D-02
 -0.70989675D-02  0.10763335D-01  0.85514757D-03  0.22907618D-03  0.58088784D-05
 -0.00000000D+00  0.00000000D+00 -0.53831219D-05 -0.00000000D+00 -0.00000000D+00
  0.38481773D-04 -0.00000000D+00 -0.00000000D+00  0.27846833D-03  0.00000000D+00
  0.00000000D+00 -0.30614616D-07 -0.25178833D-08 -0.25178833D-08  0.00000000D+00
 -0.00000000D+00  0.00000000D+00 -0.31622928D-07 -0.38701320D-07 -0.38701320D-07
  0.00000000D+00  0.00000000D+00 -0.00000000D+00
MO   14     MO 0.0        OCC NO =    0.0000000  ORB. ENERGY =    0.023226
 -0.41048528D-04  0.10108054D-01 -0.66060344D-02  0.15488336D-01 -0.16471308D-01
 -0.42915870D-03 -0.79518375D-02  0.11697331D-01  0.77429329D-03  0.30029090D-03
 -0.61589983D-06  0.00000000D+00 -0.00000000D+00  0.17024885D-03 -0.00000000D+00
  0.00000000D+00 -0.19923641D-03  0.00000000D+00 -0.00000000D+00 -0.27846000D-03
 -0.00000000D+00  0.00000000D+00 -0.36971870D-08 -0.56574925D-08 -0.56574925D-08
  0.00000000D+00 -0.00000000D+00  0.00000000D+00  0.80741684D-06  0.64545459D-08
  0.64545459D-08 -0.00000000D+00  0.00000000D+00 -0.00000000D+00  0.41048528D-04
 -0.10108054D-01  0.66060344D-02 -0.15488336D-01  0.16471308D-01  0.42915870D-03
  0.79518375D-02 -0.11697331D-01 -0.77429329D-03 -0.30029090D-03 -0.61589983D-06
 -0.00000000D+00  0.00000000D+00  0.17024885D-03  0.00000000D+00 -0.00000000D+00
 -0.19923641D-03 -0.00000000D+00  0.00000000D+00 -0.27846000D-03  0.00000000D+00
 -0.00000000D+00  0.36971870D-08  0.56574925D-08  0.56574925D-08  0.00000000D+00
 -0.00000000D+00 -0.00000000D+00 -0.80741684D-06 -0.64545459D-08 -0.64545459D-08
 -0.00000000D+00  0.00000000D+00  0.00000000D+00
MO   15     MO 0.0        OCC NO =    0.0000000  ORB. ENERGY =    0.024240
  0.00000000D+00 -0.00000000D+00 -0.00000000D+00  0.00000000D+00 -0.00000000D+00
 -0.00000000D+00 -0.00000000D+00  0.00000000D+00  0.00000000D+00 -0.00000000D+00
  0.00000000D+00 -0.33013280D-04  0.29322961D-04 -0.00000000D+00  0.32693958D-04
 -0.29039334D-04  0.00000000D+00 -0.25303648D-03  0.22475133D-03 -0.00000000D+00
  0.52951796D-03 -0.47032693D-03  0.00000000D+00 -0.00000000D+00 -0.00000000D+00
 -0.15403240D-06  0.13681422D-06  0.00000000D+00 -0.00000000D+00 -0.00000000D+00
 -0.00000000D+00  0.13791079D-06 -0.12249472D-06 -0.00000000D+00 -0.00000000D+00
  0.00000000D+00  0.00000000D+00 -0.00000000D+00  0.00000000D+00  0.00000000D+00
  0.00000000D+00 -0.00000000D+00 -0.00000000D+00  0.00000000D+00 -0.00000000D+00
  0.33013280D-04 -0.29322961D-04 -0.00000000D+00 -0.32693958D-04  0.29039334D-04
  0.00000000D+00  0.25303648D-03 -0.22475133D-03 -0.00000000D+00 -0.52951796D-03
  0.47032693D-03  0.00000000D+00  0.00000000D+00  0.00000000D+00 -0.15403240D-06
  0.13681422D-06 -0.00000000D+00  0.00000000D+00  0.00000000D+00  0.00000000D+00
  0.13791079D-06 -0.12249472D-06  0.00000000D+00
MO   16     MO 0.0        OCC NO =    0.0000000  ORB. ENERGY =    0.024240
 -0.00000000D+00 -0.00000000D+00 -0.00000000D+00 -0.00000000D+00  0.00000000D+00
  0.00000000D+00  0.00000000D+00 -0.00000000D+00 -0.00000000D+00  0.00000000D+00
  0.00000000D+00  0.29322961D-04  0.33013280D-04 -0.00000000D+00 -0.29039334D-04
 -0.32693958D-04  0.00000000D+00  0.22475133D-03  0.25303648D-03 -0.00000000D+00
 -0.47032693D-03 -0.52951796D-03  0.00000000D+00 -0.00000000D+00 -0.00000000D+00
  0.13681422D-06  0.15403240D-06 -0.00000000D+00 -0.00000000D+00 -0.00000000D+00
 -0.00000000D+00 -0.12249472D-06 -0.13791079D-06  0.00000000D+00  0.00000000D+00
  0.00000000D+00 -0.00000000D+00  0.00000000D+00 -0.00000000D+00  0.00000000D+00
 -0.00000000D+00  0.00000000D+00 -0.00000000D+00  0.00000000D+00 -0.00000000D+00
 -0.29322961D-04 -0.33013280D-04 -0.00000000D+00  0.29039334D-04  0.32693958D-04
  0.00000000D+00 -0.22475133D-03 -0.25303648D-03  0.00000000D+00  0.47032693D-03
  0.52951796D-03  0.00000000D+00  0.00000000D+00  0.00000000D+00  0.13681422D-06
  0.15403240D-06  0.00000000D+00  0.00000000D+00  0.00000000D+00  0.00000000D+00
 -0.12249472D-06 -0.13791079D-06 -0.00000000D+00
MO   17     MO 0.0        OCC NO =    0.0000000  ORB. ENERGY =    0.030323
  0.95761753D-03 -0.94072935D-03  0.39634996D-02 -0.92178519D-02  0.82779140D-02
  0.52798842D-03  0.32867240D-02 -0.49766483D-02 -0.40248932D-03 -0.10654376D-03
 -0.34991277D-04 -0.00000000D+00 -0.00000000D+00  0.43061529D-04 -0.00000000D+00
  0.00000000D+00 -0.24430609D-03  0.00000000D+00 -0.00000000D+00  0.61678573D-03
 -0.00000000D+00 -0.00000000D+00 -0.17985962D-06 -0.37860470D-08 -0.37860470D-08
 -0.00000000D+00 -0.00000000D+00  0.00000000D+00  0.32269175D-06  0.22401027D-07
  0.22401027D-07 -0.00000000D+00  0.00000000D+00 -0.00000000D+00  0.95761753D-03
 -0.94072935D-03  0.39634996D-02 -0.92178519D-02  0.82779140D-02  0.52798842D-03
  0.32867240D-02 -0.49766483D-02 -0.40248932D-03 -0.10654376D-03  0.34991277D-04
  0.00000000D+00  0.00000000D+00 -0.43061529D-04  0.00000000D+00 -0.00000000D+00
  0.24430609D-03 -0.00000000D+00  0.00000000D+00 -0.61678573D-03  0.00000000D+00
 -0.00000000D+00 -0.17985962D-06 -0.37860470D-08 -0.37860470D-08 -0.00000000D+00
 -0.00000000D+00 -0.00000000D+00  0.32269175D-06  0.22401027D-07  0.22401027D-07
 -0.00000000D+00  0.00000000D+00 -0.00000000D+00
MO   18     MO 0.0        OCC NO =    0.0000000  ORB. ENERGY =    0.030930
 -0.38830234D-02 -0.40985639D-02  0.18116904D-01 -0.18640478D-01  0.11228715D-01
  0.34112360D-02  0.35158427D-02 -0.68321511D-02 -0.12600321D-02  0.80985573D-04
  0.47967827D-04 -0.00000000D+00  0.00000000D+00 -0.88583904D-04  0.00000000D+00
 -0.00000000D+00  0.11086598D-03 -0.00000000D+00  0.00000000D+00 -0.28645709D-03
  0.00000000D+00 -0.00000000D+00  0.33912456D-06  0.92897704D-07  0.92897704D-07
 -0.00000000D+00  0.00000000D+00  0.00000000D+00  0.99840259D-06  0.19452080D-05
  0.19452080D-05  0.00000000D+00 -0.00000000D+00 -0.00000000D+00 -0.38830234D-02
 -0.40985639D-02  0.18116904D-01 -0.18640478D-01  0.11228715D-01  0.34112360D-02
  0.35158427D-02 -0.68321511D-02 -0.12600321D-02  0.80985573D-04 -0.47967827D-04
  0.00000000D+00 -0.00000000D+00  0.88583904D-04 -0.00000000D+00  0.00000000D+00
 -0.11086598D-03  0.00000000D+00 -0.00000000D+00  0.28645709D-03 -0.00000000D+00
  0.00000000D+00  0.33912456D-06  0.92897704D-07  0.92897704D-07 -0.00000000D+00
  0.00000000D+00 -0.00000000D+00  0.99840259D-06  0.19452080D-05  0.19452080D-05
  0.00000000D+00 -0.00000000D+00  0.00000000D+00
MO   19     MO 0.0        OCC NO =    0.0000000  ORB. ENERGY =    0.031543
 -0.18682652D-03  0.29825326D-01  0.10129411D-02 -0.67511506D-02  0.65068230D-02
 -0.17365143D-03  0.25664514D-02 -0.35762573D-02 -0.14565409D-03 -0.12298248D-03
  0.29012629D-05  0.00000000D+00 -0.00000000D+00  0.53308442D-03 -0.00000000D+00
  0.00000000D+00 -0.46202302D-03  0.00000000D+00 -0.00000000D+00  0.58353338D-03
  0.00000000D+00 -0.00000000D+00  0.34523739D-07  0.26910963D-07  0.26910963D-07
  0.00000000D+00 -0.00000000D+00 -0.00000000D+00  0.32294400D-05  0.62904058D-06
  0.62904058D-06 -0.00000000D+00  0.00000000D+00  0.00000000D+00  0.18682652D-03
 -0.29825326D-01 -0.10129411D-02  0.67511506D-02 -0.65068230D-02  0.17365143D-03
 -0.25664514D-02  0.35762573D-02  0.14565409D-03  0.12298248D-03  0.29012629D-05
 -0.00000000D+00  0.00000000D+00  0.53308442D-03  0.00000000D+00 -0.00000000D+00
 -0.46202302D-03 -0.00000000D+00  0.00000000D+00  0.58353338D-03 -0.00000000D+00
  0.00000000D+00 -0.34523739D-07 -0.26910963D-07 -0.26910963D-07  0.00000000D+00
 -0.00000000D+00  0.00000000D+00 -0.32294400D-05 -0.62904058D-06 -0.62904058D-06
 -0.00000000D+00 -0.00000000D+00  0.00000000D+00
MO   20     MO 0.0        OCC NO =    0.0000000  ORB. ENERGY =    0.039347
 -0.58042046D-03 -0.20358300D-01  0.16829639D-01 -0.11920504D-01  0.34978923D-02
  0.65953390D-02  0.19620200D-03 -0.35043553D-02 -0.17141711D-02  0.37935784D-03
  0.46288963D-04 -0.00000000D+00  0.00000000D+00 -0.32597906D-03  0.00000000D+00
  0.00000000D+00 -0.97067758D-04 -0.00000000D+00  0.00000000D+00  0.11304579D-03
  0.00000000D+00 -0.00000000D+00  0.62337806D-06  0.55179686D-06  0.55179686D-06
 -0.00000000D+00  0.00000000D+00 -0.00000000D+00  0.22678395D-05  0.38755037D-05
  0.38755037D-05  0.00000000D+00  0.00000000D+00 -0.00000000D+00  0.58042046D-03
  0.20358300D-01 -0.16829639D-01  0.11920504D-01 -0.34978923D-02 -0.65953390D-02
 -0.19620200D-03  0.35043553D-02  0.17141711D-02 -0.37935784D-03  0.46288963D-04
  0.00000000D+00 -0.00000000D+00 -0.32597906D-03 -0.00000000D+00 -0.00000000D+00
 -0.97067758D-04  0.00000000D+00  0.00000000D+00  0.11304579D-03 -0.00000000D+00
 -0.00000000D+00 -0.62337806D-06 -0.55179686D-06 -0.55179686D-06 -0.00000000D+00
  0.00000000D+00  0.00000000D+00 -0.22678395D-05 -0.38755037D-05 -0.38755037D-05
  0.00000000D+00  0.00000000D+00 -0.00000000D+00
MO   21     MO 0.0        OCC NO =    0.0000000  ORB. ENERGY =    0.041765
  0.00000000D+00 -0.00000000D+00  0.00000000D+00 -0.00000000D+00  0.00000000D+00
  0.00000000D+00 -0.00000000D+00 -0.00000000D+00 -0.00000000D+00  0.00000000D+00
 -0.00000000D+00 -0.00000000D+00  0.00000000D+00 -0.00000000D+00  0.00000000D+00
 -0.00000000D+00  0.00000000D+00 -0.00000000D+00  0.00000000D+00  0.00000000D+00
  0.00000000D+00 -0.00000000D+00 -0.00000000D+00  0.49514493D-08 -0.49514493D-08
 -0.00000000D+00  0.00000000D+00  0.10261567D-06 -0.00000000D+00 -0.64480097D-07
  0.64480097D-07  0.00000000D+00 -0.00000000D+00 -0.13363094D-05 -0.00000000D+00
  0.00000000D+00 -0.00000000D+00  0.00000000D+00 -0.00000000D+00 -0.00000000D+00
  0.00000000D+00  0.00000000D+00  0.00000000D+00 -0.00000000D+00  0.00000000D+00
  0.00000000D+00 -0.00000000D+00 -0.00000000D+00 -0.00000000D+00  0.00000000D+00
  0.00000000D+00  0.00000000D+00  0.00000000D+00  0.00000000D+00 -0.00000000D+00
 -0.00000000D+00  0.00000000D+00  0.49514493D-08 -0.49514493D-08 -0.00000000D+00
  0.00000000D+00  0.10261567D-06  0.00000000D+00 -0.64480097D-07  0.64480097D-07
  0.00000000D+00  0.00000000D+00 -0.13363094D-05
MO   22     MO 0.0        OCC NO =    0.0000000  ORB. ENERGY =    0.041765
  0.00000000D+00  0.00000000D+00 -0.00000000D+00  0.00000000D+00 -0.00000000D+00
 -0.00000000D+00 -0.00000000D+00  0.00000000D+00  0.00000000D+00 -0.00000000D+00
  0.00000000D+00 -0.00000000D+00  0.00000000D+00  0.00000000D+00  0.00000000D+00
 -0.00000000D+00 -0.00000000D+00  0.00000000D+00  0.00000000D+00  0.00000000D+00
 -0.00000000D+00  0.00000000D+00  0.00000000D+00  0.51307836D-07 -0.51307836D-07
 -0.00000000D+00  0.00000000D+00 -0.99029000D-08  0.00000000D+00 -0.66815467D-06
  0.66815467D-06 -0.00000000D+00 -0.00000000D+00  0.12896020D-06  0.00000000D+00
 -0.00000000D+00  0.00000000D+00 -0.00000000D+00 -0.00000000D+00  0.00000000D+00
 -0.00000000D+00 -0.00000000D+00 -0.00000000D+00 -0.00000000D+00  0.00000000D+00
  0.00000000D+00 -0.00000000D+00  0.00000000D+00 -0.00000000D+00  0.00000000D+00
 -0.00000000D+00  0.00000000D+00 -0.00000000D+00 -0.00000000D+00 -0.00000000D+00
  0.00000000D+00 -0.00000000D+00  0.51307836D-07 -0.51307836D-07 -0.00000000D+00
  0.00000000D+00 -0.99029000D-08 -0.00000000D+00 -0.66815467D-06  0.66815467D-06
  0.00000000D+00 -0.00000000D+00  0.12896020D-06
MO   23     MO 0.0        OCC NO =    0.0000000  ORB. ENERGY =    0.042579
 -0.62423081D-03  0.84054077D-01 -0.10625739D-01  0.84493980D-02  0.26535970D-03
 -0.10622189D-01  0.13822451D-02  0.31190371D-02  0.25404673D-02 -0.65875688D-03
  0.14576167D-04  0.00000000D+00 -0.00000000D+00  0.12472968D-02 -0.00000000D+00
  0.00000000D+00  0.43534812D-04  0.00000000D+00 -0.00000000D+00 -0.96837516D-04
 -0.00000000D+00  0.00000000D+00  0.28367103D-06  0.33565076D-06  0.33565076D-06
  0.00000000D+00 -0.00000000D+00  0.00000000D+00  0.64314505D-05 -0.29579568D-06
 -0.29579568D-06 -0.00000000D+00  0.00000000D+00 -0.00000000D+00  0.62423081D-03
 -0.84054077D-01  0.10625739D-01 -0.84493980D-02 -0.26535970D-03  0.10622189D-01
 -0.13822451D-02 -0.31190371D-02 -0.25404673D-02  0.65875688D-03  0.14576167D-04
 -0.00000000D+00  0.00000000D+00  0.12472968D-02  0.00000000D+00 -0.00000000D+00
  0.43534812D-04 -0.00000000D+00 -0.00000000D+00 -0.96837516D-04  0.00000000D+00
  0.00000000D+00 -0.28367103D-06 -0.33565076D-06 -0.33565076D-06  0.00000000D+00
 -0.00000000D+00 -0.00000000D+00 -0.64314505D-05  0.29579568D-06  0.29579568D-06
 -0.00000000D+00  0.00000000D+00  0.00000000D+00
MO   24     MO 0.0        OCC NO =    0.0000000  ORB. ENERGY =    0.042884
 -0.78798201D-02  0.33277394D-02  0.17315739D-02  0.23518224D-03  0.50763006D-03
 -0.19137354D-02  0.36587271D-03  0.39701091D-03  0.45011240D-03 -0.12416682D-03
  0.14017528D-03 -0.00000000D+00  0.00000000D+00 -0.50430719D-04  0.00000000D+00
 -0.00000000D+00  0.47732382D-04 -0.00000000D+00  0.00000000D+00 -0.41195446D-04
  0.00000000D+00 -0.00000000D+00  0.95905251D-06  0.18845132D-06  0.18845132D-06
 -0.00000000D+00  0.00000000D+00 -0.00000000D+00  0.77349511D-06  0.13870886D-05
  0.13870886D-05  0.00000000D+00 -0.00000000D+00  0.00000000D+00 -0.78798201D-02
  0.33277394D-02  0.17315739D-02  0.23518224D-03  0.50763006D-03 -0.19137354D-02
  0.36587271D-03  0.39701091D-03  0.45011240D-03 -0.12416682D-03 -0.14017528D-03
  0.00000000D+00 -0.00000000D+00  0.50430719D-04 -0.00000000D+00  0.00000000D+00