[Molden Format]
[Atoms] AU
E+       1       4     0.00000000     0.00000000     0.00000000
E+       2       4    34.20000000     0.00000000     0.00000000
[GTO]
  1 0
s  1 1.00
   1.0000000000E-04   1.0000000000E+00
s  1 1.00
   3.0000000000E-04   1.0000000000E+00
s  1 1.00
   9.0000000000E-04   1.0000000000E+00
s  1 1.00
   2.7000000000E-03   1.0000000000E+00
s  1 1.00
   8.1000000000E-03   1.0000000000E+00
s  1 1.00
   2.4300000000E-02   1.0000000000E+00
s  1 1.00
   7.2900000000E-02   1.0000000000E+00
s  1 1.00
   2.1870000000E-01   1.0000000000E+00
s  1 1.00
   6.5610000000E-01   1.0000000000E+00
s  1 1.00
   1.9683000000E+00   1.0000000000E+00
p  1 1.00
   1.0000000000E-04   1.0000000000E+00
p  1 1.00
   3.0000000000E-04   1.0000000000E+00
p  1 1.00
   9.0000000000E-04   1.0000000000E+00
p  1 1.00
   2.7000000000E-03   1.0000000000E+00
d  1 1.00
   1.0000000000E-04   1.0000000000E+00
d  1 1.00
   3.0000000000E-04   1.0000000000E+00
 
  2 0
s  1 1.00
   1.0000000000E-04   1.0000000000E+00
s  1 1.00
   3.0000000000E-04   1.0000000000E+00
s  1 1.00
   9.0000000000E-04   1.0000000000E+00
s  1 1.00
   2.7000000000E-03   1.0000000000E+00
s  1 1.00
   8.1000000000E-03   1.0000000000E+00
s  1 1.00
   2.4300000000E-02   1.0000000000E+00
s  1 1.00
   7.2900000000E-02   1.0000000000E+00
s  1 1.00
   2.1870000000E-01   1.0000000000E+00
s  1 1.00
   6.5610000000E-01   1.0000000000E+00
s  1 1.00
   1.9683000000E+00   1.0000000000E+00
p  1 1.00
   1.0000000000E-04   1.0000000000E+00
p  1 1.00
   3.0000000000E-04   1.0000000000E+00
p  1 1.00
   9.0000000000E-04   1.0000000000E+00
p  1 1.00
   2.7000000000E-03   1.0000000000E+00
d  1 1.00
   1.0000000000E-04   1.0000000000E+00
d  1 1.00
   3.0000000000E-04   1.0000000000E+00
 
 
[MO]
Ene=    -3.76232E-03
Spin= Alpha
Occup=   1.0000000000
   1       0.07358600
   2      -0.06437331
   3      -0.00099355
   4      -0.22812878
   5      -0.27593266
   6      -0.18986779
   7      -0.11932730
   8       0.09625587
   9       0.00653847
  10      -0.00008659
  11      -0.26022439
  12       0.00000000
  13       0.00000000
  14       0.08963773
  15      -0.00000000
  16      -0.00000000
  17      -0.05255211
  18       0.00000000
  19      -0.00000000
  20       0.01118627
  21      -0.00000000
  22       0.00000000
  23      -0.07663222
  24       0.00232998
  25       0.00232998
  26       0.00000000
  27       0.00000000
  28      -0.00000000
  29       0.04762171
  30       0.00964021
  31       0.00964021
  32      -0.00000000
  33      -0.00000000
  34       0.00000000
  35       0.07358600
  36      -0.06437331
  37      -0.00099355
  38      -0.22812878
  39      -0.27593266
  40      -0.18986779
  41      -0.11932730
  42       0.09625587
  43       0.00653847
  44      -0.00008659
  45       0.26022439
  46      -0.00000000
  47      -0.00000000
  48      -0.08963773
  49       0.00000000
  50       0.00000000
  51       0.05255211
  52      -0.00000000
  53      -0.00000000
  54      -0.01118627
  55       0.00000000
  56       0.00000000
  57      -0.07663222
  58       0.00232998
  59       0.00232998
  60       0.00000000
  61       0.00000000
  62       0.00000000
  63       0.04762171
  64       0.00964021
  65       0.00964021
  66      -0.00000000
  67       0.00000000
  68      -0.00000000
Ene=    -3.26181E-03
Spin= Alpha
Occup=   0.0000000000
   1       0.00209266
   2       0.00800559
   3       0.03699718
   4       0.30021715
   5       0.27251086
   6       0.20941871
   7       0.12247378
   8      -0.10034686
   9      -0.00711096
  10       0.00013196
  11      -0.01053397
  12      -0.00000000
  13      -0.00000000
  14      -0.01943179
  15       0.00000000
  16       0.00000000
  17       0.07114396
  18       0.00000000
  19       0.00000000
  20       0.00449591
  21      -0.00000000
  22      -0.00000000
  23      -0.01622738
  24      -0.00787278
  25      -0.00787278
  26      -0.00000000
  27      -0.00000000
  28       0.00000000
  29      -0.02774948
  30      -0.03599682
  31      -0.03599682
  32       0.00000000
  33       0.00000000
  34       0.00000000
  35      -0.00209266
  36      -0.00800559
  37      -0.03699718
  38      -0.30021715
  39      -0.27251086
  40      -0.20941871
  41      -0.12247378
  42       0.10034686
  43       0.00711096
  44      -0.00013196
  45      -0.01053397
  46       0.00000000
  47       0.00000000
  48      -0.01943179
  49      -0.00000000
  50      -0.00000000
  51       0.07114396
  52       0.00000000
  53      -0.00000000
  54       0.00449591
  55      -0.00000000
  56       0.00000000
  57       0.01622738
  58       0.00787278
  59       0.00787278
  60      -0.00000000
  61      -0.00000000
  62       0.00000000
  63       0.02774948
  64       0.03599682
  65       0.03599682
  66       0.00000000
  67       0.00000000
  68      -0.00000000
Ene=     4.12868E-03
Spin= Alpha
Occup=   0.0000000000
   1      -0.72403754
   2      -0.02851108
   3       1.06476346
   4      -0.75054463
   5      -0.04205953
   6      -0.11169301
   7      -0.03603106
   8       0.03454074
   9       0.00335211
  10      -0.00017097
  11       1.62512952
  12       0.00000000
  13      -0.00000000
  14      -0.50983505
  15      -0.00000000
  16      -0.00000000
  17       0.48877626
  18       0.00000000
  19      -0.00000000
  20      -0.04972007
  21      -0.00000000
  22       0.00000000
  23       0.51161403
  24       0.02418982
  25       0.02418982
  26       0.00000000
  27      -0.00000000
  28      -0.00000000
  29      -0.10596876
  30       0.08480759
  31       0.08480759
  32      -0.00000000
  33      -0.00000000
  34       0.00000000
  35      -0.72403754
  36      -0.02851108
  37       1.06476346
  38      -0.75054463
  39      -0.04205953
  40      -0.11169301
  41      -0.03603106
  42       0.03454074
  43       0.00335211
  44      -0.00017097
  45      -1.62512952
  46      -0.00000000
  47       0.00000000
  48       0.50983505
  49       0.00000000
  50       0.00000000
  51      -0.48877626
  52      -0.00000000
  53       0.00000000
  54       0.04972007
  55       0.00000000
  56      -0.00000000
  57       0.51161403
  58       0.02418982
  59       0.02418982
  60       0.00000000
  61      -0.00000000
  62      -0.00000000
  63      -0.10596876
  64       0.08480759
  65       0.08480759
  66      -0.00000000
  67      -0.00000000
  68       0.00000000
Ene=     5.48218E-03
Spin= Alpha
Occup=   0.0000000000
   1      -0.00000000
   2       0.00000000
   3      -0.00000000
   4       0.00000000
   5      -0.00000000
   6       0.00000000
   7      -0.00000000
   8       0.00000000
   9      -0.00000000
  10       0.00000000
  11       0.00000000
  12      -0.00777324
  13       0.02561571
  14      -0.00000000
  15       0.02528113
  16      -0.08331066
  17      -0.00000000
  18      -0.09115143
  19       0.30037764
  20       0.00000000
  21      -0.10919627
  22       0.35984204
  23       0.00000000
  24      -0.00000000
  25      -0.00000000
  26       0.00049175
  27      -0.00162048
  28      -0.00000000
  29      -0.00000000
  30      -0.00000000
  31      -0.00000000
  32      -0.00809190
  33       0.02666581
  34       0.00000000
  35      -0.00000000
  36       0.00000000
  37       0.00000000
  38      -0.00000000
  39      -0.00000000
  40       0.00000000
  41       0.00000000
  42      -0.00000000
  43       0.00000000
  44      -0.00000000
  45      -0.00000000
  46      -0.00777324
  47       0.02561571
  48       0.00000000
  49       0.02528113
  50      -0.08331066
  51      -0.00000000
  52      -0.09115143
  53       0.30037764
  54       0.00000000
  55      -0.10919627
  56       0.35984204
  57       0.00000000
  58       0.00000000
  59       0.00000000
  60      -0.00049175
  61       0.00162048
  62       0.00000000
  63      -0.00000000
  64      -0.00000000
  65      -0.00000000
  66       0.00809190
  67      -0.02666581
  68      -0.00000000
Ene=     5.48218E-03
Spin= Alpha
Occup=   0.0000000000
   1      -0.00000000
   2      -0.00000000
   3       0.00000000
   4      -0.00000000
   5      -0.00000000
   6       0.00000000
   7      -0.00000000
   8       0.00000000
   9      -0.00000000
  10       0.00000000
  11       0.00000000
  12      -0.02561571
  13      -0.00777324
  14       0.00000000
  15       0.08331066
  16       0.02528113
  17       0.00000000
  18      -0.30037764
  19      -0.09115143
  20       0.00000000
  21      -0.35984204
  22      -0.10919627
  23       0.00000000
  24       0.00000000
  25       0.00000000
  26       0.00162048
  27       0.00049175
  28       0.00000000
  29       0.00000000
  30       0.00000000
  31       0.00000000
  32      -0.02666581
  33      -0.00809190
  34      -0.00000000
  35      -0.00000000
  36      -0.00000000
  37      -0.00000000
  38       0.00000000
  39      -0.00000000
  40       0.00000000
  41      -0.00000000
  42      -0.00000000
  43       0.00000000
  44      -0.00000000
  45      -0.00000000
  46      -0.02561571
  47      -0.00777324
  48      -0.00000000
  49       0.08331066
  50       0.02528113
  51       0.00000000
  52      -0.30037764
  53      -0.09115143
  54      -0.00000000
  55      -0.35984204
  56      -0.10919627
  57      -0.00000000
  58      -0.00000000
  59      -0.00000000
  60      -0.00162048
  61      -0.00049175
  62      -0.00000000
  63       0.00000000
  64       0.00000000
  65       0.00000000
  66       0.02666581
  67       0.00809190
  68       0.00000000
Ene=     7.94739E-03
Spin= Alpha
Occup=   0.0000000000
   1      -0.00000000
   2      -0.00000000
   3       0.00000000
   4       0.00000000
   5      -0.00000000
   6       0.00000000
   7      -0.00000000
   8       0.00000000
   9       0.00000000
  10      -0.00000000
  11      -0.00000000
  12      -0.53912551
  13      -0.68643254
  14      -0.00000000
  15       0.08324896
  16       0.10599534
  17       0.00000000
  18      -0.09328648
  19      -0.11877545
  20      -0.00000000
  21      -0.44812621
  22      -0.57056921
  23      -0.00000000
  24       0.00000000
  25       0.00000000
  26      -0.09038200
  27      -0.11507738
  28       0.00000000
  29      -0.00000000
  30      -0.00000000
  31      -0.00000000
  32       0.01175496
  33       0.01496681
  34      -0.00000000
  35       0.00000000
  36       0.00000000
  37      -0.00000000
  38       0.00000000
  39       0.00000000
  40      -0.00000000
  41       0.00000000
  42      -0.00000000
  43       0.00000000
  44      -0.00000000
  45      -0.00000000
  46       0.53912551
  47       0.68643254
  48      -0.00000000
  49      -0.08324896
  50      -0.10599534
  51       0.00000000
  52       0.09328648
  53       0.11877545
  54       0.00000000
  55       0.44812621
  56       0.57056921
  57       0.00000000
  58      -0.00000000
  59      -0.00000000
  60      -0.09038200
  61      -0.11507738
  62      -0.00000000
  63       0.00000000
  64       0.00000000
  65       0.00000000
  66       0.01175496
  67       0.01496681
  68       0.00000000
Ene=     7.94739E-03
Spin= Alpha
Occup=   0.0000000000
   1       0.00000000
   2      -0.00000000
   3       0.00000000
   4      -0.00000000
   5       0.00000000
   6      -0.00000000
   7       0.00000000
   8      -0.00000000
   9      -0.00000000
  10       0.00000000
  11       0.00000000
  12       0.68643254
  13      -0.53912551
  14      -0.00000000
  15      -0.10599534
  16       0.08324896
  17       0.00000000
  18       0.11877545
  19      -0.09328648
  20       0.00000000
  21       0.57056921
  22      -0.44812621
  23       0.00000000
  24      -0.00000000
  25      -0.00000000
  26       0.11507738
  27      -0.09038200
  28       0.00000000
  29      -0.00000000
  30      -0.00000000
  31      -0.00000000
  32      -0.01496681
  33       0.01175496
  34       0.00000000
  35      -0.00000000
  36       0.00000000
  37      -0.00000000
  38       0.00000000
  39       0.00000000
  40      -0.00000000
  41       0.00000000
  42      -0.00000000
  43       0.00000000
  44      -0.00000000
  45       0.00000000
  46      -0.68643254
  47       0.53912551
  48      -0.00000000
  49       0.10599534
  50      -0.08324896
  51       0.00000000
  52      -0.11877545
  53       0.09328648
  54      -0.00000000
  55      -0.57056921
  56       0.44812621
  57      -0.00000000
  58       0.00000000
  59       0.00000000
  60       0.11507738
  61      -0.09038200
  62      -0.00000000
  63       0.00000000
  64       0.00000000
  65       0.00000000
  66      -0.01496681
  67       0.01175496
  68       0.00000000
Ene=     8.77307E-03
Spin= Alpha
Occup=   0.0000000000
   1       0.02409051
   2      -0.00814074
   3      -3.12287634
   4      -0.15603445
   5       0.55420725
   6       0.01846968
   7       0.08058328
   8      -0.05311626
   9      -0.00167068
  10      -0.00023771
  11      -0.12855081
  12      -0.00000000
  13      -0.00000000
  14       0.03222734
  15       0.00000000
  16       0.00000000
  17      -1.17408360
  18      -0.00000000
  19      -0.00000000
  20      -0.23913156
  21      -0.00000000
  22      -0.00000000
  23      -0.09925346
  24      -0.18622807
  25      -0.18622807
  26      -0.00000000
  27      -0.00000000
  28       0.00000000
  29      -0.26038873
  30      -0.10714574
  31      -0.10714574
  32       0.00000000
  33       0.00000000
  34      -0.00000000
  35      -0.02409051
  36       0.00814074
  37       3.12287634
  38       0.15603445
  39      -0.55420725
  40      -0.01846968
  41      -0.08058328
  42       0.05311626
  43       0.00167068
  44       0.00023771
  45      -0.12855081
  46       0.00000000
  47       0.00000000
  48       0.03222734
  49      -0.00000000
  50      -0.00000000
  51      -1.17408360
  52       0.00000000
  53       0.00000000
  54      -0.23913156
  55      -0.00000000
  56       0.00000000
  57       0.09925346
  58       0.18622807
  59       0.18622807
  60      -0.00000000
  61      -0.00000000
  62       0.00000000
  63       0.26038873
  64       0.10714574
  65       0.10714574
  66       0.00000000
  67       0.00000000
  68      -0.00000000
Ene=     9.20817E-03
Spin= Alpha
Occup=   0.0000000000
   1      -0.31372768
   2       0.24680427
   3       0.32425074
   4      -0.57905520
   5       0.31532593
   6      -0.04731771
   7       0.03677239
   8      -0.01852619
   9       0.00060993
  10      -0.00025279
  11       1.27038798
  12       0.00000000
  13      -0.00000000
  14      -0.35789139
  15      -0.00000000
  16       0.00000000
  17       0.37191980
  18       0.00000000
  19      -0.00000000
  20      -0.70449751
  21      -0.00000000
  22       0.00000000
  23       0.36530270
  24      -0.01810683
  25      -0.01810683
  26       0.00000000
  27      -0.00000000
  28      -0.00000000
  29      -0.19642402
  30      -0.06103692
  31      -0.06103692
  32      -0.00000000
  33       0.00000000
  34       0.00000000
  35      -0.31372768
  36       0.24680427
  37       0.32425074
  38      -0.57905520
  39       0.31532593
  40      -0.04731771
  41       0.03677239
  42      -0.01852619
  43       0.00060993
  44      -0.00025279
  45      -1.27038798
  46      -0.00000000
  47       0.00000000
  48       0.35789139
  49       0.00000000
  50      -0.00000000
  51      -0.37191980
  52      -0.00000000
  53       0.00000000
  54       0.70449751
  55       0.00000000
  56      -0.00000000
  57       0.36530270
  58      -0.01810683
  59      -0.01810683
  60       0.00000000
  61      -0.00000000
  62      -0.00000000
  63      -0.19642402
  64      -0.06103692
  65      -0.06103692
  66      -0.00000000
  67       0.00000000
  68       0.00000000
Ene=     1.26042E-02
Spin= Alpha
Occup=   0.0000000000
   1      -0.32099231
   2       0.27656510
   3       0.31302277
   4      -1.65860078
   5       1.01349271
   6      -0.01231901
   7       0.11598420
   8      -0.07246991
   9      -0.00151103
  10      -0.00043657
  11       1.53892825
  12       0.00000000
  13      -0.00000000
  14      -0.28009702
  15      -0.00000000
  16      -0.00000000
  17       0.46610173
  18       0.00000000
  19       0.00000000
  20       0.03379701
  21      -0.00000000
  22      -0.00000000
  23       0.43068204
  24      -0.02953546
  25      -0.02953546
  26       0.00000000
  27      -0.00000000
  28       0.00000000
  29      -0.18076972
  30      -0.10592763
  31      -0.10592763
  32       0.00000000
  33       0.00000000
  34      -0.00000000
  35      -0.32099231
  36       0.27656510
  37       0.31302277
  38      -1.65860078
  39       1.01349271
  40      -0.01231901
  41       0.11598420
  42      -0.07246991
  43      -0.00151103
  44      -0.00043657
  45      -1.53892825
  46      -0.00000000
  47       0.00000000
  48       0.28009702
  49      -0.00000000
  50      -0.00000000
  51      -0.46610173
  52       0.00000000
  53       0.00000000
  54      -0.03379701
  55      -0.00000000
  56      -0.00000000
  57       0.43068204
  58      -0.02953546
  59      -0.02953546
  60       0.00000000
  61      -0.00000000
  62      -0.00000000
  63      -0.18076972
  64      -0.10592763
  65      -0.10592763
  66      -0.00000000
  67      -0.00000000
  68       0.00000000
Ene=     1.26055E-02
Spin= Alpha
Occup=   0.0000000000
   1       0.00000000
   2      -0.00000000
   3      -0.00000000
   4       0.00000000
   5      -0.00000000
   6       0.00000000
   7      -0.00000000
   8       0.00000000
   9       0.00000000
  10       0.00000000
  11      -0.00000000
  12       0.00253084
  13       0.06535271
  14       0.00000000
  15      -0.00856660
  16      -0.22121129
  17      -0.00000000
  18       0.03711096
  19       0.95829902
  20      -0.00000000
  21      -0.03608236
  22      -0.93173814
  23      -0.00000000
  24       0.00000000
  25       0.00000000
  26      -0.00002886
  27      -0.00074519
  28      -0.00000000
  29       0.00000000
  30       0.00000000
  31       0.00000000
  32       0.00244068
  33       0.06302448
  34       0.00000000
  35       0.00000000
  36      -0.00000000
  37      -0.00000000
  38       0.00000000
  39      -0.00000000
  40       0.00000000
  41      -0.00000000
  42       0.00000000
  43       0.00000000
  44       0.00000000
  45       0.00000000
  46       0.00253084
  47       0.06535271
  48      -0.00000000
  49      -0.00856660
  50      -0.22121129
  51       0.00000000
  52       0.03711096
  53       0.95829902
  54       0.00000000
  55      -0.03608236
  56      -0.93173814
  57      -0.00000000
  58       0.00000000
  59       0.00000000
  60       0.00002886
  61       0.00074519
  62       0.00000000
  63       0.00000000
  64       0.00000000
  65       0.00000000
  66      -0.00244068
  67      -0.06302448
  68      -0.00000000
Ene=     1.26055E-02
Spin= Alpha
Occup=   0.0000000000
   1       0.00000000
   2      -0.00000000
   3      -0.00000000
   4       0.00000000
   5      -0.00000000
   6       0.00000000
   7      -0.00000000
   8       0.00000000
   9      -0.00000000
  10       0.00000000
  11      -0.00000000
  12      -0.06535271
  13       0.00253084
  14       0.00000000
  15       0.22121129
  16      -0.00856660
  17      -0.00000000
  18      -0.95829902
  19       0.03711096
  20       0.00000000
  21       0.93173814
  22      -0.03608236
  23      -0.00000000
  24       0.00000000
  25       0.00000000
  26       0.00074519
  27      -0.00002886
  28       0.00000000
  29       0.00000000
  30       0.00000000
  31       0.00000000
  32      -0.06302448
  33       0.00244068
  34      -0.00000000
  35       0.00000000
  36      -0.00000000
  37      -0.00000000
  38       0.00000000
  39      -0.00000000
  40       0.00000000
  41      -0.00000000
  42       0.00000000
  43      -0.00000000
  44       0.00000000
  45       0.00000000
  46      -0.06535271
  47       0.00253084
  48      -0.00000000
  49       0.22121129
  50      -0.00856660
  51       0.00000000
  52      -0.95829902
  53       0.03711096
  54       0.00000000
  55       0.93173814
  56      -0.03608236
  57      -0.00000000
  58      -0.00000000
  59      -0.00000000
  60      -0.00074519
  61       0.00002886
  62      -0.00000000
  63      -0.00000000
  64      -0.00000000
  65      -0.00000000
  66       0.06302448
  67      -0.00244068
  68       0.00000000
Ene=     1.31719E-02
Spin= Alpha
Occup=   0.0000000000
   1       0.01737020
   2       0.01292469
   3      -1.52863375
   4       0.09478069
   5      -0.00649445
   6      -0.07702062
   7      -0.00892223
   8       0.01338663
   9       0.00198012
  10      -0.00016074
  11      -0.09116219
  12       0.00000000
  13      -0.00000000
  14      -0.02350299
  15      -0.00000000
  16      -0.00000000
  17      -0.45321020
  18      -0.00000000
  19      -0.00000000
  20      -1.16771641
  21       0.00000000
  22      -0.00000000
  23      -0.09020197
  24      -0.11640515
  25      -0.11640515
  26       0.00000000
  27      -0.00000000
  28       0.00000000
  29      -0.19518521
  30      -0.13498712
  31      -0.13498712
  32      -0.00000000
  33      -0.00000000
  34      -0.00000000
  35      -0.01737020
  36      -0.01292469
  37       1.52863375
  38      -0.09478069
  39       0.00649445
  40       0.07702062
  41       0.00892223
  42      -0.01338663
  43      -0.00198012
  44       0.00016074
  45      -0.09116219
  46      -0.00000000
  47       0.00000000
  48      -0.02350299
  49       0.00000000
  50       0.00000000
  51      -0.45321020
  52      -0.00000000
  53       0.00000000
  54      -1.16771641
  55       0.00000000
  56      -0.00000000
  57       0.09020197
  58       0.11640515
  59       0.11640515
  60       0.00000000
  61      -0.00000000
  62      -0.00000000
  63       0.19518521
  64       0.13498712
  65       0.13498712
  66      -0.00000000
  67      -0.00000000
  68       0.00000000
Ene=     1.76992E-02
Spin= Alpha
Occup=   0.0000000000
   1      -0.01175399
   2       0.04179657
   3       5.02221524
   4      -2.96588162
   5       1.33139155
   6      -0.09408123
   7       0.11691164
   8      -0.06510357
   9       0.00025347
  10      -0.00062328
  11       0.06615911
  12      -0.00000000
  13       0.00000000
  14      -0.07548532
  15       0.00000000
  16       0.00000000
  17       1.95724670
  18      -0.00000000
  19       0.00000000
  20      -0.42915913
  21       0.00000000
  22      -0.00000000
  23       0.00720680
  24       0.12710039
  25       0.12710039
  26      -0.00000000
  27       0.00000000
  28      -0.00000000
  29       0.14249970
  30      -0.04790801
  31      -0.04790801
  32       0.00000000
  33       0.00000000
  34       0.00000000
  35       0.01175399
  36      -0.04179657
  37      -5.02221524
  38       2.96588162
  39      -1.33139155
  40       0.09408123
  41      -0.11691164
  42       0.06510357
  43      -0.00025347
  44       0.00062328
  45       0.06615911
  46       0.00000000
  47      -0.00000000
  48      -0.07548532
  49      -0.00000000
  50      -0.00000000
  51       1.95724670
  52       0.00000000
  53      -0.00000000
  54      -0.42915913
  55      -0.00000000
  56       0.00000000
  57      -0.00720680
  58      -0.12710039
  59      -0.12710039
  60      -0.00000000
  61       0.00000000
  62       0.00000000
  63      -0.14249970
  64       0.04790801
  65       0.04790801
  66       0.00000000
  67       0.00000000
  68      -0.00000000
Ene=     1.87227E-02
Spin= Alpha
Occup=   0.0000000000
   1       0.00000000
   2       0.00000000
   3       0.00000000
   4      -0.00000000
   5       0.00000000
   6      -0.00000000
   7       0.00000000
   8      -0.00000000
   9      -0.00000000
  10      -0.00000000
  11       0.00000000
  12       5.84301568
  13       7.25568228
  14       0.00000000
  15      -1.26911347
  16      -1.57594718
  17       0.00000000
  18       1.14747520
  19       1.42490042
  20      -0.00000000
  21      -0.54452485
  22      -0.67617469
  23       0.00000000
  24       0.00000000
  25       0.00000000
  26       0.98878223
  27       1.22784023
  28       0.00000000
  29       0.00000000
  30       0.00000000
  31       0.00000000
  32      -0.25824387
  33      -0.32067952
  34      -0.00000000
  35      -0.00000000
  36      -0.00000000
  37      -0.00000000
  38       0.00000000
  39      -0.00000000
  40       0.00000000
  41      -0.00000000
  42       0.00000000
  43       0.00000000
  44       0.00000000
  45       0.00000000
  46      -5.84301568
  47      -7.25568228
  48       0.00000000
  49       1.26911347
  50       1.57594718
  51       0.00000000
  52      -1.14747520
  53      -1.42490042
  54      -0.00000000
  55       0.54452485
  56       0.67617469
  57       0.00000000
  58      -0.00000000
  59      -0.00000000
  60       0.98878223
  61       1.22784023
  62      -0.00000000
  63      -0.00000000
  64      -0.00000000
  65      -0.00000000
  66      -0.25824387
  67      -0.32067952
  68      -0.00000000
Ene=     1.87227E-02
Spin= Alpha
Occup=   0.0000000000
   1      -0.00000000
   2       0.00000000
   3      -0.00000000
   4       0.00000000
   5      -0.00000000
   6       0.00000000
   7      -0.00000000
   8       0.00000000
   9       0.00000000
  10       0.00000000
  11      -0.00000000
  12      -7.25568228
  13       5.84301568
  14       0.00000000
  15       1.57594718
  16      -1.26911347
  17      -0.00000000
  18      -1.42490042
  19       1.14747520
  20       0.00000000
  21       0.67617469
  22      -0.54452485
  23      -0.00000000
  24       0.00000000
  25       0.00000000
  26      -1.22784023
  27       0.98878223
  28      -0.00000000
  29       0.00000000
  30       0.00000000
  31       0.00000000
  32       0.32067952
  33      -0.25824387
  34       0.00000000
  35       0.00000000
  36      -0.00000000
  37       0.00000000
  38      -0.00000000
  39       0.00000000
  40      -0.00000000
  41       0.00000000
  42      -0.00000000
  43       0.00000000
  44      -0.00000000
  45       0.00000000
  46       7.25568228
  47      -5.84301568
  48       0.00000000
  49      -1.57594718
  50       1.26911347
  51      -0.00000000
  52       1.42490042
  53      -1.14747520
  54       0.00000000
  55      -0.67617469
  56       0.54452485
  57      -0.00000000
  58       0.00000000
  59       0.00000000
  60      -1.22784023
  61       0.98878223
  62       0.00000000
  63      -0.00000000
  64       0.00000000
  65       0.00000000
  66       0.32067952
  67      -0.25824387
  68      -0.00000000
Ene=     2.27460E-02
Spin= Alpha
Occup=   0.0000000000
   1      -1.62103231
   2       1.64376825
   3      -1.79081137
   4       1.20209917
   5      -0.44917079
   6      -0.03469808
   7      -0.03469278
   8       0.02546686
   9       0.00139698
  10       0.00003384
  11       5.93148148
  12       0.00000000
  13      -0.00000000
  14      -1.60891270
  15      -0.00000000
  16       0.00000000
  17       1.29111990
  18      -0.00000000
  19      -0.00000000
  20      -0.63007752
  21       0.00000000
  22      -0.00000000
  23       1.73843628
  24      -0.05866438
  25      -0.05866438
  26       0.00000000
  27      -0.00000000
  28       0.00000000
  29      -0.93381090
  30      -0.30197311
  31      -0.30197311
  32      -0.00000000
  33       0.00000000
  34      -0.00000000
  35      -1.62103231
  36       1.64376825
  37      -1.79081137
  38       1.20209917
  39      -0.44917079
  40      -0.03469808
  41      -0.03469278
  42       0.02546686
  43       0.00139698
  44       0.00003384
  45      -5.93148148
  46      -0.00000000
  47       0.00000000
  48       1.60891270
  49       0.00000000
  50      -0.00000000
  51      -1.29111990
  52       0.00000000
  53       0.00000000
  54       0.63007752
  55      -0.00000000
  56       0.00000000
  57       1.73843628
  58      -0.05866438
  59      -0.05866438
  60       0.00000000
  61      -0.00000000
  62      -0.00000000
  63      -0.93381090
  64      -0.30197311
  65      -0.30197311
  66      -0.00000000
  67       0.00000000
  68       0.00000000
Ene=     2.54622E-02
Spin= Alpha
Occup=   0.0000000000
   1       0.07111589
   2       0.32803904
   3       3.43198224
   4      -0.17804118
   5       0.05866425
   6      -0.04703376
   7       0.00249818
   8       0.00284313
   9       0.00097686
  10      -0.00011150
  11      -0.35534891
  12      -0.00000000
  13      -0.00000000
  14      -0.77247725
  15       0.00000000
  16       0.00000000
  17       4.12170859
  18      -0.00000000
  19      -0.00000000
  20      -0.95949947
  21       0.00000000
  22      -0.00000000
  23      -0.58451430
  24      -0.26526380
  25      -0.26526380
  26      -0.00000000
  27      -0.00000000
  28       0.00000000
  29      -0.98621986
  30      -1.28040554
  31      -1.28040554
  32       0.00000000
  33       0.00000000
  34      -0.00000000
  35      -0.07111589
  36      -0.32803904
  37      -3.43198224
  38       0.17804118
  39      -0.05866425
  40       0.04703376
  41      -0.00249818
  42      -0.00284313
  43      -0.00097686
  44       0.00011150
  45      -0.35534891
  46       0.00000000
  47       0.00000000
  48      -0.77247725
  49      -0.00000000
  50      -0.00000000
  51       4.12170859
  52       0.00000000
  53       0.00000000
  54      -0.95949947
  55      -0.00000000
  56       0.00000000
  57       0.58451430
  58       0.26526380
  59       0.26526380
  60      -0.00000000
  61      -0.00000000
  62      -0.00000000
  63       0.98621986
  64       1.28040554
  65       1.28040554
  66       0.00000000
  67       0.00000000
  68       0.00000000
Ene=     2.90004E-02
Spin= Alpha
Occup=   0.0000000000
   1       5.12682841
   2       2.18576364
   3      -4.77342376
   4       2.11413152
   5      -0.42841795
   6      -0.12783434
   7      -0.01866831
   8       0.02464958
   9       0.00339070
  10      -0.00025233
  11      -4.71206311
  12      -0.00000000