[Molden Format]
[Title]
 Molden2AIM, Version 3.1.0 (02/25/2015)           Time: Thu Oct 17 19:52:43 2024

[Atoms] AU
E+       1       4     0.00000000     0.00000000     0.00000000
E+       2       4    10.60000000     0.00000000     0.00000000
[GTO]
    1 0
 S   1 1.0
    0.1000000000D-03      0.1000000000D+01
 S   1 1.0
    0.3000000000D-03      0.1000000000D+01
 S   1 1.0
    0.9000000000D-03      0.1000000000D+01
 S   1 1.0
    0.2700000000D-02      0.1000000000D+01
 S   1 1.0
    0.8100000000D-02      0.1000000000D+01
 S   1 1.0
    0.2430000000D-01      0.1000000000D+01
 S   1 1.0
    0.7290000000D-01      0.1000000000D+01
 S   1 1.0
    0.2187000000D+00      0.1000000000D+01
 S   1 1.0
    0.6561000000D+00      0.1000000000D+01
 S   1 1.0
    0.1968300000D+01      0.1000000000D+01
 P   1 1.0
    0.1000000000D-03      0.1000000000D+01
 P   1 1.0
    0.3000000000D-03      0.1000000000D+01
 P   1 1.0
    0.9000000000D-03      0.1000000000D+01
 P   1 1.0
    0.2700000000D-02      0.1000000000D+01
 D   1 1.0
    0.1000000000D-03      0.1000000000D+01
 D   1 1.0
    0.3000000000D-03      0.1000000000D+01

    2 0
 S   1 1.0
    0.1000000000D-03      0.1000000000D+01
 S   1 1.0
    0.3000000000D-03      0.1000000000D+01
 S   1 1.0
    0.9000000000D-03      0.1000000000D+01
 S   1 1.0
    0.2700000000D-02      0.1000000000D+01
 S   1 1.0
    0.8100000000D-02      0.1000000000D+01
 S   1 1.0
    0.2430000000D-01      0.1000000000D+01
 S   1 1.0
    0.7290000000D-01      0.1000000000D+01
 S   1 1.0
    0.2187000000D+00      0.1000000000D+01
 S   1 1.0
    0.6561000000D+00      0.1000000000D+01
 S   1 1.0
    0.1968300000D+01      0.1000000000D+01
 P   1 1.0
    0.1000000000D-03      0.1000000000D+01
 P   1 1.0
    0.3000000000D-03      0.1000000000D+01
 P   1 1.0
    0.9000000000D-03      0.1000000000D+01
 P   1 1.0
    0.2700000000D-02      0.1000000000D+01
 D   1 1.0
    0.1000000000D-03      0.1000000000D+01
 D   1 1.0
    0.3000000000D-03      0.1000000000D+01


[MO]
 Ene=         -0.00929060
 Spin= Alpha
 Occup=        1.00000000
    1        0.0087007600
    2        0.1281272200
    3       -0.0242217600
    4       -0.0866000700
    5       -0.2352402300
    6       -0.2446889600
    7       -0.1248490000
    8        0.1089029900
    9        0.0083385200
   10       -0.0002499800
   11        0.0077373600
   12       -0.0000000000
   13       -0.0000000000
   14       -0.6233538200
   15       -0.0000000000
   16       -0.0000000000
   17        0.0256332600
   18        0.0000000000
   19        0.0000000000
   20       -0.0307076000
   21       -0.0000000000
   22       -0.0000000000
   23       -0.0007093800
   24       -0.0012695400
   25       -0.0012695400
   26       -0.0000000000
   27       -0.0000000000
   28       -0.0000000000
   29       -0.1040735500
   30       -0.0055438600
   31       -0.0055438600
   32       -0.0000000000
   33       -0.0000000000
   34        0.0000000000
   35        0.0087007600
   36        0.1281272200
   37       -0.0242217600
   38       -0.0866000700
   39       -0.2352402300
   40       -0.2446889600
   41       -0.1248490000
   42        0.1089029900
   43        0.0083385200
   44       -0.0002499800
   45       -0.0077373600
   46        0.0000000000
   47        0.0000000000
   48        0.6233538200
   49        0.0000000000
   50        0.0000000000
   51       -0.0256332600
   52       -0.0000000000
   53       -0.0000000000
   54        0.0307076000
   55        0.0000000000
   56        0.0000000000
   57       -0.0007093800
   58       -0.0012695400
   59       -0.0012695400
   60       -0.0000000000
   61       -0.0000000000
   62        0.0000000000
   63       -0.1040735500
   64       -0.0055438600
   65       -0.0055438600
   66       -0.0000000000
   67       -0.0000000000
   68       -0.0000000000
 Ene=          0.00213211
 Spin= Alpha
 Occup=        0.00000000
    1       -0.0051560400
    2       -0.0025718300
    3       14.4112614000
    4       -1.2814660100
    5        0.3837382300
    6        0.1044288300
    7        0.0709727100
    8       -0.0584674600
    9       -0.0041680600
   10        0.0000800000
   11        0.0856896600
   12       -0.0000000000
   13       -0.0000000000
   14        0.0480894600
   15        0.0000000000
   16       -0.0000000000
   17        1.9322639700
   18       -0.0000000000
   19        0.0000000000
   20       -0.4485103300
   21        0.0000000000
   22       -0.0000000000
   23        0.2706362300
   24        0.3296942700
   25        0.3296942700
   26       -0.0000000000
   27       -0.0000000000
   28       -0.0000000000
   29        0.5786979100
   30        0.4825275000
   31        0.4825275000
   32        0.0000000000
   33       -0.0000000000
   34       -0.0000000000
   35        0.0051560400
   36        0.0025718200
   37      -14.4112614000
   38        1.2814660100
   39       -0.3837382300
   40       -0.1044288300
   41       -0.0709727100
   42        0.0584674600
   43        0.0041680600
   44       -0.0000800000
   45        0.0856896600
   46        0.0000000000
   47        0.0000000000
   48        0.0480894600
   49       -0.0000000000
   50        0.0000000000
   51        1.9322639700
   52        0.0000000000
   53       -0.0000000000
   54       -0.4485103300
   55       -0.0000000000
   56        0.0000000000
   57       -0.2706362300
   58       -0.3296942700
   59       -0.3296942700
   60       -0.0000000000
   61       -0.0000000000
   62        0.0000000000
   63       -0.5786979100
   64       -0.4825275000
   65       -0.4825275000
   66        0.0000000000
   67       -0.0000000000
   68        0.0000000000
 Ene=          0.00252164
 Spin= Alpha
 Occup=        0.00000000
    1        0.1596397600
    2        0.0949950400
    3       -1.1808576100
    4        0.6817287100
    5       -0.1296793500
    6        0.1247767900
    7        0.0036492300
    8       -0.0154613500
    9       -0.0031898800
   10        0.0003205300
   11        0.0048814400
   12        0.0000000000
   13        0.0000000000
   14        1.3152293800
   15        0.0000000000
   16        0.0000000000
   17       -0.1721512200
   18       -0.0000000000
   19       -0.0000000000
   20        0.0176461900
   21        0.0000000000
   22        0.0000000000
   23       -0.0212574000
   24       -0.0224531000
   25       -0.0224531000
   26        0.0000000000
   27        0.0000000000
   28        0.0000000000
   29        0.1034658900
   30       -0.1019187600
   31       -0.1019187600
   32        0.0000000000
   33        0.0000000000
   34       -0.0000000000
   35        0.1596397600
   36        0.0949950400
   37       -1.1808576100
   38        0.6817287100
   39       -0.1296793500
   40        0.1247767900
   41        0.0036492300
   42       -0.0154613500
   43       -0.0031898800
   44        0.0003205300
   45       -0.0048814400
   46       -0.0000000000
   47       -0.0000000000
   48       -1.3152293800
   49       -0.0000000000
   50       -0.0000000000
   51        0.1721512200
   52        0.0000000000
   53        0.0000000000
   54       -0.0176461900
   55       -0.0000000000
   56       -0.0000000000
   57       -0.0212574000
   58       -0.0224531000
   59       -0.0224531000
   60        0.0000000000
   61        0.0000000000
   62       -0.0000000000
   63        0.1034658900
   64       -0.1019187600
   65       -0.1019187600
   66        0.0000000000
   67        0.0000000000
   68        0.0000000000
 Ene=          0.00354594
 Spin= Alpha
 Occup=        0.00000000
    1       -0.0000000000
    2       -0.0000000000
    3       -0.0000000000
    4       -0.0000000000
    5        0.0000000000
    6        0.0000000000
    7        0.0000000000
    8       -0.0000000000
    9       -0.0000000000
   10        0.0000000000
   11       -0.0000000000
   12       -0.0211568800
   13        0.0177899300
   14        0.0000000000
   15        0.0918378400
   16       -0.0772225800
   17       -0.0000000000
   18       -0.4299945100
   19        0.3615643300
   20       -0.0000000000
   21       -0.0213743800
   22        0.0179728200
   23        0.0000000000
   24       -0.0000000000
   25       -0.0000000000
   26       -0.1159232300
   27        0.0974749700
   28       -0.0000000000
   29        0.0000000000
   30        0.0000000000
   31        0.0000000000
   32        0.0631051200
   33       -0.0530624400
   34        0.0000000000
   35       -0.0000000000
   36       -0.0000000000
   37        0.0000000000
   38        0.0000000000
   39       -0.0000000000
   40       -0.0000000000
   41       -0.0000000000
   42        0.0000000000
   43        0.0000000000
   44       -0.0000000000
   45        0.0000000000
   46       -0.0211568800
   47        0.0177899300
   48       -0.0000000000
   49        0.0918378400
   50       -0.0772225800
   51       -0.0000000000
   52       -0.4299945100
   53        0.3615643300
   54       -0.0000000000
   55       -0.0213743800
   56        0.0179728200
   57       -0.0000000000
   58        0.0000000000
   59        0.0000000000
   60        0.1159232300
   61       -0.0974749700
   62        0.0000000000
   63        0.0000000000
   64       -0.0000000000
   65       -0.0000000000
   66       -0.0631051200
   67        0.0530624400
   68       -0.0000000000
 Ene=          0.00354594
 Spin= Alpha
 Occup=        0.00000000
    1        0.0000000000
    2        0.0000000000
    3        0.0000000000
    4       -0.0000000000
    5        0.0000000000
    6       -0.0000000000
    7        0.0000000000
    8        0.0000000000
    9        0.0000000000
   10       -0.0000000000
   11        0.0000000000
   12        0.0177899300
   13        0.0211568800
   14       -0.0000000000
   15       -0.0772225800
   16       -0.0918378400
   17        0.0000000000
   18        0.3615643300
   19        0.4299945100
   20       -0.0000000000
   21        0.0179728200
   22        0.0213743800
   23       -0.0000000000
   24       -0.0000000000
   25       -0.0000000000
   26        0.0974749700
   27        0.1159232300
   28       -0.0000000000
   29       -0.0000000000
   30       -0.0000000000
   31       -0.0000000000
   32       -0.0530624400
   33       -0.0631051200
   34        0.0000000000
   35        0.0000000000
   36        0.0000000000
   37       -0.0000000000
   38        0.0000000000
   39       -0.0000000000
   40        0.0000000000
   41        0.0000000000
   42       -0.0000000000
   43       -0.0000000000
   44        0.0000000000
   45       -0.0000000000
   46        0.0177899300
   47        0.0211568800
   48        0.0000000000
   49       -0.0772225800
   50       -0.0918378400
   51        0.0000000000
   52        0.3615643300
   53        0.4299945100
   54       -0.0000000000
   55        0.0179728200
   56        0.0213743800
   57        0.0000000000
   58        0.0000000000
   59        0.0000000000
   60       -0.0974749700
   61       -0.1159232300
   62        0.0000000000
   63       -0.0000000000
   64        0.0000000000
   65        0.0000000000
   66        0.0530624400
   67        0.0631051200
   68       -0.0000000000
 Ene=          0.00544962
 Spin= Alpha
 Occup=        0.00000000
    1        0.0094760400
    2        0.0047697700
    3      -28.9183650300
    4        2.5853529300
    5        0.2337474000
    6        0.1722743600
    7        0.0663621400
    8       -0.0624859100
    9       -0.0056791200
   10        0.0002560500
   11       -0.1570326900
   12        0.0000000000
   13        0.0000000000
   14       -0.0967766500
   15       -0.0000000000
   16        0.0000000000
   17       -3.8593399400
   18        0.0000000000
   19       -0.0000000000
   20        0.2281017400
   21        0.0000000000
   22       -0.0000000000
   23       -0.4947758300
   24       -0.6040834200
   25       -0.6040834200
   26        0.0000000000
   27        0.0000000000
   28        0.0000000000
   29       -1.0767187500
   30       -0.8976939500
   31       -0.8976939500
   32       -0.0000000000
   33        0.0000000000
   34       -0.0000000000
   35       -0.0094760400
   36       -0.0047697700
   37       28.9183650300
   38       -2.5853529300
   39       -0.2337474000
   40       -0.1722743600
   41       -0.0663621400
   42        0.0624859100
   43        0.0056791200
   44       -0.0002560500
   45       -0.1570326900
   46       -0.0000000000
   47       -0.0000000000
   48       -0.0967766400
   49        0.0000000000
   50       -0.0000000000
   51       -3.8593399400
   52       -0.0000000000
   53        0.0000000000
   54        0.2281017400
   55       -0.0000000000
   56        0.0000000000
   57        0.4947758300
   58        0.6040834200
   59        0.6040834200
   60        0.0000000000
   61        0.0000000000
   62       -0.0000000000
   63        1.0767187400
   64        0.8976939500
   65        0.8976939500
   66       -0.0000000000
   67        0.0000000000
   68       -0.0000000000
 Ene=          0.00667107
 Spin= Alpha
 Occup=        0.00000000
    1        0.3125440300
    2        6.6936319500
    3       -0.4224755000
    4       -0.5903288000
    5        0.0725027300
    6       -0.0191908700
    7        0.0098155500
    8       -0.0044938200
    9        0.0002987300
   10       -0.0000828000
   11        0.3975521800
   12       -0.0000000000
   13       -0.0000000000
   14      -33.5138194300
   15       -0.0000000100
   16       -0.0000000100
   17        2.3837555900
   18        0.0000000000
   19        0.0000000000
   20        0.5325352800
   21        0.0000000000
   22        0.0000000000
   23       -0.0225854800
   24       -0.0437822900
   25       -0.0437822900
   26       -0.0000000000
   27       -0.0000000000
   28        0.0000000000
   29       -5.4913489800
   30       -0.2232322500
   31       -0.2232322500
   32       -0.0000000000
   33       -0.0000000000
   34       -0.0000000000
   35        0.3125440300
   36        6.6936319500
   37       -0.4224755100
   38       -0.5903288000
   39        0.0725027300
   40       -0.0191908700
   41        0.0098155500
   42       -0.0044938200
   43        0.0002987300
   44       -0.0000828000
   45       -0.3975521800
   46        0.0000000000
   47        0.0000000000
   48       33.5138194300
   49        0.0000000100
   50        0.0000000100
   51       -2.3837555900
   52       -0.0000000000
   53       -0.0000000000
   54       -0.5325352800
   55       -0.0000000000
   56       -0.0000000000
   57       -0.0225854800
   58       -0.0437822900
   59       -0.0437822900
   60       -0.0000000000
   61       -0.0000000000
   62       -0.0000000000
   63       -5.4913489800
   64       -0.2232322500
   65       -0.2232322500
   66       -0.0000000000
   67       -0.0000000000
   68        0.0000000000
 Ene=          0.00678629
 Spin= Alpha
 Occup=        0.00000000
    1        0.0000000000
    2        0.0000000000
    3        0.0000000000
    4       -0.0000000000
    5        0.0000000000
    6       -0.0000000000
    7        0.0000000000
    8       -0.0000000000
    9        0.0000000000
   10       -0.0000000000
   11        0.0000000000
   12       -0.0011310500
   13       -0.0002833800
   14       -0.0000000000
   15        0.0030037900
   16        0.0007525800
   17        0.0000000000
   18       -2.5878819400
   19       -0.6483781000
   20        0.0000000000
   21       -0.6318175700
   22       -0.1582980500
   23       -0.0000000000
   24       -0.0000000000
   25       -0.0000000000
   26        0.0327514700
   27        0.0082056800
   28       -0.0000000000
   29       -0.0000000000
   30       -0.0000000000
   31       -0.0000000000
   32       -0.0968543100
   33       -0.0242662600
   34       -0.0000000000
   35        0.0000000000
   36        0.0000000000
   37       -0.0000000000
   38       -0.0000000000
   39        0.0000000000
   40       -0.0000000000
   41        0.0000000000
   42       -0.0000000000
   43        0.0000000000
   44       -0.0000000000
   45       -0.0000000000
   46        0.0011310500
   47        0.0002833800
   48        0.0000000000
   49       -0.0030037900
   50       -0.0007525800
   51       -0.0000000000
   52        2.5878819400
   53        0.6483781000
   54       -0.0000000000
   55        0.6318175700
   56        0.1582980500
   57       -0.0000000000
   58       -0.0000000000
   59       -0.0000000000
   60        0.0327514700
   61        0.0082056800
   62        0.0000000000
   63       -0.0000000000
   64       -0.0000000000
   65       -0.0000000000
   66       -0.0968543100
   67       -0.0242662600
   68        0.0000000000
 Ene=          0.00678629
 Spin= Alpha
 Occup=        0.00000000
    1        0.0000000000
    2        0.0000000000
    3       -0.0000000000
    4       -0.0000000000
    5        0.0000000000
    6       -0.0000000000
    7        0.0000000000
    8       -0.0000000000
    9        0.0000000000
   10       -0.0000000000
   11        0.0000000000
   12        0.0002833800
   13       -0.0011310500
   14       -0.0000000000
   15       -0.0007525800
   16        0.0030037900
   17        0.0000000000
   18        0.6483781000
   19       -2.5878819400
   20        0.0000000000
   21        0.1582980500
   22       -0.6318175700
   23       -0.0000000000
   24        0.0000000000
   25        0.0000000000
   26       -0.0082056800
   27        0.0327514700
   28       -0.0000000000
   29       -0.0000000000
   30       -0.0000000000
   31       -0.0000000000
   32        0.0242662600
   33       -0.0968543100
   34       -0.0000000000
   35        0.0000000000
   36        0.0000000000
   37        0.0000000000
   38       -0.0000000000
   39        0.0000000000
   40       -0.0000000000
   41        0.0000000000
   42       -0.0000000000
   43        0.0000000000
   44       -0.0000000000
   45       -0.0000000000
   46       -0.0002833800
   47        0.0011310500
   48        0.0000000000
   49        0.0007525800
   50       -0.0030037900
   51       -0.0000000000
   52       -0.6483781000
   53        2.5878819400
   54       -0.0000000000
   55       -0.1582980500
   56        0.6318175700
   57       -0.0000000000
   58       -0.0000000000
   59       -0.0000000000
   60       -0.0082056800
   61        0.0327514700
   62       -0.0000000000
   63       -0.0000000000
   64       -0.0000000000
   65       -0.0000000000
   66        0.0242662600
   67       -0.0968543100
   68        0.0000000000
 Ene=          0.00913499
 Spin= Alpha
 Occup=        0.00000000
    1       -0.0000000000
    2       -0.0000000000
    3       -0.0000000000
    4       -0.0000000000
    5        0.0000000000
    6       -0.0000000000
    7       -0.0000000000
    8        0.0000000000
    9        0.0000000000
   10       -0.0000000000
   11       -0.0000000000
   12       -0.0271543000
   13        0.0029151300
   14        0.0000000000
   15        0.1191106100
   16       -0.0127870200
   17       -0.0000000000
   18       -0.6510291100
   19        0.0698906900
   20       -0.0000000000
   21        0.7656740900
   22       -0.0821983100
   23        0.0000000000
   24        0.0000000000
   25        0.0000000000
   26       -0.1349519500
   27        0.0144876500
   28       -0.0000000000
   29        0.0000000000
   30        0.0000000000
   31        0.0000000000
   32        0.0681075700
   33       -0.0073116300
   34       -0.0000000000
   35       -0.0000000000
   36       -0.0000000000
   37        0.0000000000
   38        0.0000000000
   39       -0.0000000000
   40        0.0000000000
   41        0.0000000000
   42       -0.0000000000
   43       -0.0000000000
   44        0.0000000000
   45        0.0000000000
   46       -0.0271543000
   47        0.0029151300
   48       -0.0000000000
   49        0.1191106100
   50       -0.0127870200
   51       -0.0000000000
   52       -0.6510291100
   53        0.0698906900
   54       -0.0000000000
   55        0.7656740900
   56       -0.0821983100
   57       -0.0000000000
   58       -0.0000000000
   59       -0.0000000000
   60        0.1349519500
   61       -0.0144876500
   62        0.0000000000
   63        0.0000000000
   64       -0.0000000000
   65       -0.0000000000
   66       -0.0681075700
   67        0.0073116300
   68        0.0000000000
 Ene=          0.00913499
 Spin= Alpha
 Occup=        0.00000000
    1        0.0000000000
    2        0.0000000000
    3       -0.0000000000
    4       -0.0000000000
    5       -0.0000000000
    6       -0.0000000000
    7       -0.0000000000
    8        0.0000000000
    9        0.0000000000
   10       -0.0000000000
   11        0.0000000000
   12       -0.0029151300
   13       -0.0271543000
   14       -0.0000000000
   15        0.0127870200
   16        0.1191106100
   17       -0.0000000000
   18       -0.0698906900
   19       -0.6510291100
   20       -0.0000000000
   21        0.0821983100
   22        0.7656740900
   23        0.0000000000
   24        0.0000000000
   25        0.0000000000
   26       -0.0144876500
   27       -0.1349519500
   28       -0.0000000000
   29       -0.0000000000
   30        0.0000000000
   31        0.0000000000
   32        0.0073116300
   33        0.0681075700
   34        0.0000000000
   35        0.0000000000
   36        0.0000000000
   37        0.0000000000
   38        0.0000000000
   39        0.0000000000
   40        0.0000000000
   41        0.0000000000
   42       -0.0000000000
   43       -0.0000000000
   44        0.0000000000
   45       -0.0000000000
   46       -0.0029151300
   47       -0.0271543000
   48        0.0000000000
   49        0.0127870200
   50        0.1191106100
   51       -0.0000000000
   52       -0.0698906900
   53       -0.6510291100
   54       -0.0000000000
   55        0.0821983100
   56        0.7656740900
   57       -0.0000000000
   58       -0.0000000000
   59       -0.0000000000
   60        0.0144876500
   61        0.1349519500
   62        0.0000000000
   63       -0.0000000000
   64       -0.0000000000
   65       -0.0000000000
   66       -0.0073116300
   67       -0.0681075700
   68       -0.0000000000
 Ene=          0.01047350
 Spin= Alpha
 Occup=        0.00000000
    1        0.0036402600
    2        0.0754727000
    3      137.8538878500
    4       23.7540725200
    5       -0.2197525000
    6        0.0709220400
    7        0.0028371800
    8       -0.0089702800
    9       -0.0016163400
   10        0.0001488200
   11       -0.0807648100
   12       -0.0000000000
   13       -0.0000000000
   14       -0.2962404900
   15        0.0000000100
   16       -0.0000000000
   17       22.1850692200
   18       -0.0000000000
   19        0.0000000000
   20        7.6081989300
   21        0.0000000000
   22       -0.0000000000
   23       -0.5842440800
   24       -0.0280342600
   25       -0.0280342600
   26       -0.0000000000
   27       -0.0000000000
   28       -0.0000000000
   29       -0.6168216000
   30       -1.4620236200
   31       -1.4620236200
   32        0.0000000000
   33       -0.0000000000
   34       -0.0000000000
   35       -0.0036402600
   36       -0.0754727000
   37     -137.8538878500
   38      -23.7540725100
   39        0.2197525000
   40       -0.0709220400
   41       -0.0028371800
   42        0.0089702800
   43        0.0016163400
   44       -0.0001488200
   45       -0.0807648100
   46        0.0000000000
   47        0.0000000000
   48       -0.2962404700
   49       -0.0000000100
   50        0.0000000000
   51       22.1850692200
   52        0.0000000000
   53       -0.0000000000
   54        7.6081989300
   55       -0.0000000000
   56        0.0000000000
   57        0.5842440800
   58        0.0280342600
   59        0.0280342600
   60       -0.0000000000
   61       -0.0000000000
   62        0.0000000000
   63        0.6168216000
   64        1.4620236200
   65        1.4620236200
   66        0.0000000000
   67       -0.0000000000
   68        0.0000000000
 Ene=          0.01084960
 Spin= Alpha
 Occup=        0.00000000
    1        0.1110180100
    2       -2.7543495400
    3        0.8792748800
    4       -1.6028396600
    5        0.9541554600
    6       -0.0622212300
    7        0.0980323200
    8       -0.0587391900
    9       -0.0004076900
   10       -0.0004672300
   11       -0.1391732500
   12        0.0000000000
   13        0.0000000000
   14       14.2291356600
   15        0.0000000000
   16        0.0000000000
   17       -0.6232290800
   18       -0.0000000000
   19       -0.0000000000
   20        0.2159923700
   21        0.0000000000
   22        0.0000000000
   23       -0.0289760900
   24       -0.0173873300
   25       -0.0173873300
   26        0.0000000000
   27        0.0000000000
   28       -0.0000000000
   29        2.2484618100
   30       -0.0060027300
   31       -0.0060027300
   32        0.0000000000
   33        0.0000000000
   34        0.0000000000
   35        0.1110180100
   36       -2.7543495400
   37        0.8792748400
   38       -1.6028396700
   39        0.9541554600
   40       -0.0622212300
   41        0.0980323200
   42       -0.0587391900
   43       -0.0004076900
   44       -0.0004672300
   45        0.1391732500
   46       -0.0000000000
   47       -0.0000000000
   48      -14.2291356600
   49       -0.0000000000
   50       -0.0000000000
   51        0.6232290800
   52        0.0000000000
   53        0.0000000000
   54       -0.2159923700
   55       -0.0000000000
   56       -0.0000000000
   57       -0.0289760900
   58       -0.0173873300
   59       -0.0173873300
   60        0.0000000000
   61        0.0000000000
   62        0.0000000000
   63        2.2484618100
   64       -0.0060027300
   65       -0.0060027300
   66        0.0000000000
   67        0.0000000000
   68       -0.0000000000
 Ene=          0.01467240
 Spin= Alpha
 Occup=        0.00000000
    1       -0.0000000000
    2       -0.0000000000
    3        0.0000000000
    4       -0.0000000000
    5       -0.0000000000
    6        0.0000000000
    7       -0.0000000000
    8        0.0000000000
    9       -0.0000000000
   10        0.0000000000
   11       -0.0000000000
   12       -0.0010001700
   13        0.0001889400
   14        0.0000000100
   15        0.0007676700
   16       -0.0001450200
   17       -0.0000000000
   18       -3.7495325600
   19        0.7083199700
   20        0.0000000000
   21        2.3306561800
   22       -0.4402816300
   23       -0.0000000000
   24        0.0000000000
   25        0.0000000000
   26        0.0383079100
   27       -0.0072367000
   28        0.0000000000
   29        0.0000000000
   30        0.0000000000
   31        0.0000000000
   32       -0.1157777400
   33        0.0218714400
   34       -0.0000000000
   35       -0.0000000000
   36       -0.0000000000
   37       -0.0000000000
   38        0.0000000000
   39       -0.0000000000
   40        0.0000000000
   41       -0.0000000000
   42        0.0000000000
   43       -0.0000000000
   44        0.0000000000
   45        0.0000000000
   46        0.0010001700
   47       -0.0001889400
   48       -0.0000000100
   49       -0.0007676700
   50        0.0001450200
   51        0.0000000000
   52        3.7495325600
   53       -0.7083199700
   54       -0.0000000000
   55       -2.3306561800
   56        0.4402816300
   57        0.0000000000
   58        0.0000000000
   59        0.0000000000
   60        0.0383079100
   61       -0.0072367000
   62       -0.0000000000
   63        0.0000000000
   64        0.0000000000
   65        0.0000000000
   66       -0.1157777400
   67        0.0218714400
   68        0.0000000000
 Ene=          0.01467240
 Spin= Alpha
 Occup=        0.00000000
    1       -0.0000000000
    2       -0.0000000000
    3        0.0000000000
    4        0.0000000000
    5       -0.0000000000
    6        0.0000000000
    7       -0.0000000000
    8        0.0000000000
    9       -0.0000000000
   10        0.0000000000
   11       -0.0000000000
   12       -0.0001889400
   13       -0.0010001700
   14        0.0000000100
   15        0.0001450200
   16        0.0007676700
   17       -0.0000000000
   18       -0.7083199700
   19       -3.7495325600
   20        0.0000000000
   21        0.4402816300
   22        2.3306561800
   23        0.0000000000
   24        0.0000000000
   25        0.0000000000
   26        0.0072367000
   27        0.0383079100
   28        0.0000000000
   29        0.0000000000
   30        0.0000000000
   31        0.0000000000
   32       -0.0218714400
   33       -0.1157777400
   34       -0.0000000000
   35       -0.0000000000
   36       -0.0000000000
   37        0.0000000000
   38       -0.0000000000
   39       -0.0000000000
   40        0.0000000000
   41       -0.0000000000
   42        0.0000000000
   43       -0.0000000000
   44        0.0000000000
   45        0.0000000000
   46        0.0001889400
   47        0.0010001700
   48       -0.0000000100
   49       -0.0001450200
   50       -0.0007676700
   51        0.0000000000
   52        0.7083199700
   53        3.7495325600
   54       -0.0000000000
   55       -0.4402816300
   56       -2.3306561800
   57       -0.0000000000
   58        0.0000000000
   59        0.0000000000
   60        0.0072367000
   61        0.0383079100
   62       -0.0000000000
   63        0.0000000000
   64        0.0000000000
   65        0.0000000000
   66       -0.0218714400
   67       -0.1157777400
   68        0.0000000000
 Ene=          0.01482180
 Spin= Alpha
 Occup=        0.00000000
    1       -0.5925402000
    2       -6.5615157900
    3        1.3630080900
    4        0.0391884200
    5       -0.6452261300
    6        0.0885210600
    7       -0.0492997200
    8        0.0236969400
    9       -0.0011610800
   10        0.0003782800
   11       -0.3972537000
   12        0.0000000000
   13        0.0000000000
   14       30.3721130000
   15        0.0000000100
   16        0.0000000100