 Molden2AIM, Version 3.1.0 (02/25/2015)           Time: Thu Oct 17 19:53:35 2024
GAUSSIAN             68 MOL ORBITALS     68 PRIMITIVES        2 NUCLEI
  Be   1    (CENTRE  1)   0.00000000  0.00000000  0.00000000  CHARGE =  4.0
  Be   2    (CENTRE  2)  21.60000000  0.00000000  0.00000000  CHARGE =  4.0
CENTRE ASSIGNMENTS    1  1  1  1  1  1  1  1  1  1  1  1  1  1  1  1  1  1  1  1
CENTRE ASSIGNMENTS    1  1  1  1  1  1  1  1  1  1  1  1  1  1  2  2  2  2  2  2
CENTRE ASSIGNMENTS    2  2  2  2  2  2  2  2  2  2  2  2  2  2  2  2  2  2  2  2
CENTRE ASSIGNMENTS    2  2  2  2  2  2  2  2
TYPE ASSIGNMENTS      1  1  1  1  1  1  1  1  1  1  2  3  4  2  3  4  2  3  4  2
TYPE ASSIGNMENTS      3  4  5  6  7  8  9 10  5  6  7  8  9 10  1  1  1  1  1  1
TYPE ASSIGNMENTS      1  1  1  1  2  3  4  2  3  4  2  3  4  2  3  4  5  6  7  8
TYPE ASSIGNMENTS      9 10  5  6  7  8  9 10
EXPONENTS  0.1000000D-03 0.3000000D-03 0.9000000D-03 0.2700000D-02 0.8100000D-02
EXPONENTS  0.2430000D-01 0.7290000D-01 0.2187000D+00 0.6561000D+00 0.1968300D+01
EXPONENTS  0.1000000D-03 0.1000000D-03 0.1000000D-03 0.3000000D-03 0.3000000D-03
EXPONENTS  0.3000000D-03 0.9000000D-03 0.9000000D-03 0.9000000D-03 0.2700000D-02
EXPONENTS  0.2700000D-02 0.2700000D-02 0.1000000D-03 0.1000000D-03 0.1000000D-03
EXPONENTS  0.1000000D-03 0.1000000D-03 0.1000000D-03 0.3000000D-03 0.3000000D-03
EXPONENTS  0.3000000D-03 0.3000000D-03 0.3000000D-03 0.3000000D-03 0.1000000D-03
EXPONENTS  0.3000000D-03 0.9000000D-03 0.2700000D-02 0.8100000D-02 0.2430000D-01
EXPONENTS  0.7290000D-01 0.2187000D+00 0.6561000D+00 0.1968300D+01 0.1000000D-03
EXPONENTS  0.1000000D-03 0.1000000D-03 0.3000000D-03 0.3000000D-03 0.3000000D-03
EXPONENTS  0.9000000D-03 0.9000000D-03 0.9000000D-03 0.2700000D-02 0.2700000D-02
EXPONENTS  0.2700000D-02 0.1000000D-03 0.1000000D-03 0.1000000D-03 0.1000000D-03
EXPONENTS  0.1000000D-03 0.1000000D-03 0.3000000D-03 0.3000000D-03 0.3000000D-03
EXPONENTS  0.3000000D-03 0.3000000D-03 0.3000000D-03
MO    1     MO 0.0        OCC NO =    1.0000000  ORB. ENERGY =   -0.003927
 -0.30099020D-04  0.77602811D-04 -0.14258450D-03 -0.19742782D-02 -0.41212908D-02
 -0.82025968D-02 -0.11111810D-01  0.20765925D-01  0.33173481D-02 -0.13322707D-03
  0.28947860D-05  0.00000000D+00  0.00000000D+00 -0.55564081D-05 -0.00000000D+00
 -0.00000000D+00  0.11480230D-05  0.00000000D+00  0.00000000D+00 -0.15862445D-04
 -0.00000000D+00 -0.00000000D+00  0.63289434D-08 -0.38391149D-10 -0.38391149D-10
  0.00000000D+00  0.00000000D+00 -0.00000000D+00 -0.38488374D-07 -0.28672826D-08
 -0.28672826D-08 -0.00000000D+00  0.00000000D+00  0.00000000D+00 -0.30099020D-04
  0.77602811D-04 -0.14258450D-03 -0.19742782D-02 -0.41212908D-02 -0.82025968D-02
 -0.11111810D-01  0.20765925D-01  0.33173481D-02 -0.13322707D-03 -0.28947860D-05
 -0.00000000D+00 -0.00000000D+00  0.55564081D-05  0.00000000D+00 -0.00000000D+00
 -0.11480230D-05 -0.00000000D+00  0.00000000D+00  0.15862445D-04  0.00000000D+00
 -0.00000000D+00  0.63289434D-08 -0.38391149D-10 -0.38391149D-10  0.00000000D+00
  0.00000000D+00  0.00000000D+00 -0.38488374D-07 -0.28672826D-08 -0.28672826D-08
 -0.00000000D+00 -0.00000000D+00 -0.00000000D+00
MO    2     MO 0.0        OCC NO =    0.0000000  ORB. ENERGY =   -0.001140
  0.49488130D-06 -0.22372765D-05 -0.22162760D-02 -0.26238912D-02 -0.49476089D-02
 -0.92007385D-02 -0.11742669D-01  0.22178225D-01  0.36635896D-02 -0.17728474D-03
 -0.83727213D-07 -0.00000000D+00  0.00000000D+00  0.25235117D-06  0.00000000D+00
 -0.00000000D+00 -0.39185755D-04 -0.00000000D+00  0.00000000D+00  0.64420039D-04
  0.00000000D+00 -0.00000000D+00 -0.80354773D-09 -0.24779581D-08 -0.24779581D-08
 -0.00000000D+00  0.00000000D+00  0.00000000D+00 -0.20001700D-07 -0.18397968D-08
 -0.18397968D-08  0.00000000D+00 -0.00000000D+00 -0.00000000D+00 -0.49488130D-06
  0.22372765D-05  0.22162760D-02  0.26238912D-02  0.49476089D-02  0.92007385D-02
  0.11742669D-01 -0.22178225D-01 -0.36635896D-02  0.17728474D-03 -0.83727213D-07
  0.00000000D+00 -0.00000000D+00  0.25235117D-06 -0.00000000D+00  0.00000000D+00
 -0.39185755D-04  0.00000000D+00 -0.00000000D+00  0.64420039D-04 -0.00000000D+00
  0.00000000D+00  0.80354773D-09  0.24779581D-08  0.24779581D-08 -0.00000000D+00
  0.00000000D+00 -0.00000000D+00  0.20001700D-07  0.18397968D-08  0.18397968D-08
  0.00000000D+00 -0.00000000D+00 -0.00000000D+00
MO    3     MO 0.0        OCC NO =    0.0000000  ORB. ENERGY =    0.003482
  0.65519984D-03 -0.25862828D-03 -0.42684260D-02  0.71329480D-02 -0.10955758D-02
  0.52050967D-02  0.25479743D-02 -0.65340949D-02 -0.17536422D-02  0.26972294D-03
 -0.51708954D-04  0.00000000D+00  0.00000000D+00  0.69091113D-04 -0.00000000D+00
 -0.00000000D+00 -0.10198111D-03  0.00000000D+00  0.00000000D+00  0.87868333D-04
 -0.00000000D+00 -0.00000000D+00 -0.11569007D-06 -0.31215074D-08 -0.31215074D-08
  0.00000000D+00  0.00000000D+00 -0.00000000D+00  0.32152248D-06 -0.87746765D-07
 -0.87746765D-07 -0.00000000D+00 -0.00000000D+00 -0.00000000D+00  0.65519984D-03
 -0.25862828D-03 -0.42684260D-02  0.71329480D-02 -0.10955758D-02  0.52050967D-02
  0.25479743D-02 -0.65340949D-02 -0.17536422D-02  0.26972294D-03  0.51708954D-04
 -0.00000000D+00 -0.00000000D+00 -0.69091113D-04  0.00000000D+00  0.00000000D+00
  0.10198111D-03 -0.00000000D+00 -0.00000000D+00 -0.87868333D-04  0.00000000D+00
  0.00000000D+00 -0.11569007D-06 -0.31215074D-08 -0.31215074D-08  0.00000000D+00
  0.00000000D+00  0.00000000D+00  0.32152248D-06 -0.87746765D-07 -0.87746765D-07
 -0.00000000D+00 -0.00000000D+00  0.00000000D+00
MO    4     MO 0.0        OCC NO =    0.0000000  ORB. ENERGY =    0.004093
 -0.00000000D+00  0.00000000D+00 -0.00000000D+00  0.00000000D+00  0.00000000D+00
  0.00000000D+00  0.00000000D+00 -0.00000000D+00 -0.00000000D+00  0.00000000D+00
  0.00000000D+00 -0.42368715D-06  0.16842656D-08 -0.00000000D+00  0.65352716D-05
 -0.25978667D-07  0.00000000D+00 -0.10833397D-03  0.43063833D-06 -0.00000000D+00
 -0.12618638D-03  0.50160119D-06  0.00000000D+00 -0.00000000D+00 -0.00000000D+00
 -0.14280231D-07  0.56765565D-10  0.00000000D+00 -0.00000000D+00 -0.00000000D+00
 -0.00000000D+00  0.18920194D-07 -0.75213276D-10 -0.00000000D+00 -0.00000000D+00
  0.00000000D+00 -0.00000000D+00  0.00000000D+00  0.00000000D+00  0.00000000D+00
  0.00000000D+00 -0.00000000D+00  0.00000000D+00 -0.00000000D+00 -0.00000000D+00
 -0.42368715D-06  0.16842656D-08  0.00000000D+00  0.65352716D-05 -0.25978667D-07
 -0.00000000D+00 -0.10833397D-03  0.43063833D-06 -0.00000000D+00 -0.12618638D-03
  0.50160119D-06  0.00000000D+00 -0.00000000D+00 -0.00000000D+00  0.14280231D-07
 -0.56765565D-10 -0.00000000D+00 -0.00000000D+00 -0.00000000D+00 -0.00000000D+00
 -0.18920194D-07  0.75213276D-10 -0.00000000D+00
MO    5     MO 0.0        OCC NO =    0.0000000  ORB. ENERGY =    0.004093
 -0.00000000D+00  0.00000000D+00 -0.00000000D+00 -0.00000000D+00 -0.00000000D+00
  0.00000000D+00 -0.00000000D+00  0.00000000D+00 -0.00000000D+00  0.00000000D+00
  0.00000000D+00  0.16842656D-08  0.42368715D-06 -0.00000000D+00 -0.25978667D-07
 -0.65352716D-05 -0.00000000D+00  0.43063833D-06  0.10833397D-03 -0.00000000D+00
  0.50160119D-06  0.12618638D-03  0.00000000D+00 -0.00000000D+00  0.00000000D+00
  0.56765565D-10  0.14280231D-07  0.00000000D+00 -0.00000000D+00  0.00000000D+00
 -0.00000000D+00 -0.75213276D-10 -0.18920194D-07 -0.00000000D+00 -0.00000000D+00
  0.00000000D+00  0.00000000D+00 -0.00000000D+00  0.00000000D+00 -0.00000000D+00
  0.00000000D+00 -0.00000000D+00  0.00000000D+00 -0.00000000D+00 -0.00000000D+00
  0.16842656D-08  0.42368715D-06  0.00000000D+00 -0.25978667D-07 -0.65352716D-05
 -0.00000000D+00  0.43063833D-06  0.10833397D-03  0.00000000D+00  0.50160119D-06
  0.12618638D-03  0.00000000D+00 -0.00000000D+00 -0.00000000D+00 -0.56765565D-10
 -0.14280231D-07 -0.00000000D+00 -0.00000000D+00 -0.00000000D+00 -0.00000000D+00
  0.75213276D-10  0.18920194D-07  0.00000000D+00
MO    6     MO 0.0        OCC NO =    0.0000000  ORB. ENERGY =    0.005882
 -0.10462495D-04 -0.55093042D-05  0.25110236D-01 -0.42245893D-02 -0.62342831D-02
 -0.30922706D-02 -0.74321635D-02  0.12452412D-01  0.14710471D-02  0.98111215D-04
  0.17427634D-05  0.00000000D+00 -0.00000000D+00  0.14641014D-05 -0.00000000D+00
  0.00000000D+00  0.37450625D-03  0.00000000D+00 -0.00000000D+00 -0.20583985D-03
  0.00000000D+00 -0.00000000D+00  0.27667078D-07  0.41886677D-07  0.41886677D-07
  0.00000000D+00 -0.00000000D+00 -0.00000000D+00  0.45751710D-06  0.28898257D-06
  0.28898257D-06 -0.00000000D+00  0.00000000D+00  0.00000000D+00  0.10462495D-04
  0.55093042D-05 -0.25110236D-01  0.42245893D-02  0.62342831D-02  0.30922706D-02
  0.74321635D-02 -0.12452412D-01 -0.14710471D-02 -0.98111215D-04  0.17427634D-05
 -0.00000000D+00  0.00000000D+00  0.14641014D-05  0.00000000D+00 -0.00000000D+00
  0.37450625D-03 -0.00000000D+00  0.00000000D+00 -0.20583985D-03 -0.00000000D+00
  0.00000000D+00 -0.27667078D-07 -0.41886677D-07 -0.41886677D-07  0.00000000D+00
 -0.00000000D+00  0.00000000D+00 -0.45751710D-06 -0.28898257D-06 -0.28898257D-06
 -0.00000000D+00  0.00000000D+00  0.00000000D+00
MO    7     MO 0.0        OCC NO =    0.0000000  ORB. ENERGY =    0.006779
 -0.98144762D-03  0.14258030D-02  0.17333326D-03 -0.67500533D-02  0.52145861D-02
 -0.17946222D-02  0.26132966D-02 -0.29269330D-02  0.26182302D-03 -0.22066733D-03
  0.10007599D-03 -0.00000000D+00 -0.00000000D+00 -0.11205291D-03  0.00000000D+00
  0.00000000D+00  0.13540727D-03 -0.00000000D+00 -0.00000000D+00  0.47086296D-03
 -0.00000000D+00 -0.00000000D+00  0.21489062D-06 -0.33758930D-08 -0.33758930D-08
 -0.00000000D+00 -0.00000000D+00  0.00000000D+00 -0.76326277D-06 -0.97340351D-07
 -0.97340351D-07  0.00000000D+00  0.00000000D+00  0.00000000D+00 -0.98144762D-03
  0.14258030D-02  0.17333326D-03 -0.67500533D-02  0.52145861D-02 -0.17946222D-02
  0.26132966D-02 -0.29269330D-02  0.26182302D-03 -0.22066733D-03 -0.10007599D-03
  0.00000000D+00  0.00000000D+00  0.11205291D-03 -0.00000000D+00 -0.00000000D+00
 -0.13540727D-03  0.00000000D+00  0.00000000D+00 -0.47086296D-03  0.00000000D+00
  0.00000000D+00  0.21489062D-06 -0.33758930D-08 -0.33758930D-08 -0.00000000D+00
 -0.00000000D+00 -0.00000000D+00 -0.76326277D-06 -0.97340351D-07 -0.97340351D-07
  0.00000000D+00  0.00000000D+00 -0.00000000D+00
MO    8     MO 0.0        OCC NO =    0.0000000  ORB. ENERGY =    0.007092
  0.00000000D+00 -0.00000000D+00  0.00000000D+00 -0.00000000D+00  0.00000000D+00
 -0.00000000D+00  0.00000000D+00 -0.00000000D+00  0.00000000D+00 -0.00000000D+00
 -0.00000000D+00  0.17396763D-03 -0.13517321D-03 -0.00000000D+00 -0.15284324D-03
  0.11875952D-03  0.00000000D+00  0.16260962D-03 -0.12634801D-03  0.00000000D+00
  0.43647797D-03 -0.33914429D-03 -0.00000000D+00 -0.00000000D+00 -0.00000000D+00
  0.37514915D-06 -0.29149167D-06  0.00000000D+00 -0.00000000D+00 -0.00000000D+00
 -0.00000000D+00 -0.89142915D-06  0.69264229D-06 -0.00000000D+00  0.00000000D+00
  0.00000000D+00 -0.00000000D+00 -0.00000000D+00 -0.00000000D+00 -0.00000000D+00
 -0.00000000D+00  0.00000000D+00  0.00000000D+00  0.00000000D+00  0.00000000D+00
 -0.17396763D-03  0.13517321D-03 -0.00000000D+00  0.15284324D-03 -0.11875952D-03
  0.00000000D+00 -0.16260962D-03  0.12634801D-03 -0.00000000D+00 -0.43647797D-03
  0.33914429D-03 -0.00000000D+00  0.00000000D+00  0.00000000D+00  0.37514915D-06
 -0.29149167D-06 -0.00000000D+00  0.00000000D+00  0.00000000D+00  0.00000000D+00
 -0.89142915D-06  0.69264229D-06  0.00000000D+00
MO    9     MO 0.0        OCC NO =    0.0000000  ORB. ENERGY =    0.007092
 -0.00000000D+00  0.00000000D+00 -0.00000000D+00  0.00000000D+00 -0.00000000D+00
  0.00000000D+00 -0.00000000D+00  0.00000000D+00 -0.00000000D+00 -0.00000000D+00
  0.00000000D+00 -0.13517321D-03 -0.17396763D-03  0.00000000D+00  0.11875952D-03
  0.15284324D-03 -0.00000000D+00 -0.12634801D-03 -0.16260962D-03 -0.00000000D+00
 -0.33914429D-03 -0.43647797D-03  0.00000000D+00 -0.00000000D+00 -0.00000000D+00
 -0.29149167D-06 -0.37514915D-06 -0.00000000D+00  0.00000000D+00 -0.00000000D+00
 -0.00000000D+00  0.69264229D-06  0.89142915D-06  0.00000000D+00  0.00000000D+00
 -0.00000000D+00 -0.00000000D+00  0.00000000D+00 -0.00000000D+00  0.00000000D+00
 -0.00000000D+00  0.00000000D+00 -0.00000000D+00 -0.00000000D+00 -0.00000000D+00
  0.13517321D-03  0.17396763D-03  0.00000000D+00 -0.11875952D-03 -0.15284324D-03
 -0.00000000D+00  0.12634801D-03  0.16260962D-03  0.00000000D+00  0.33914429D-03
  0.43647797D-03  0.00000000D+00 -0.00000000D+00 -0.00000000D+00 -0.29149167D-06
 -0.37514915D-06  0.00000000D+00 -0.00000000D+00 -0.00000000D+00 -0.00000000D+00
  0.69264229D-06  0.89142915D-06 -0.00000000D+00
MO   10     MO 0.0        OCC NO =    0.0000000  ORB. ENERGY =    0.010418
 -0.00000000D+00  0.00000000D+00  0.00000000D+00  0.00000000D+00  0.00000000D+00
  0.00000000D+00  0.00000000D+00 -0.00000000D+00 -0.00000000D+00  0.00000000D+00
  0.00000000D+00 -0.53016549D-06  0.25147371D-06 -0.00000000D+00  0.81445015D-05
 -0.38631861D-05  0.00000000D+00 -0.15895745D-03  0.75398380D-04  0.00000000D+00
  0.68621110D-03 -0.32549091D-03  0.00000000D+00  0.00000000D+00  0.00000000D+00
 -0.13877929D-07  0.65827273D-08 -0.00000000D+00 -0.00000000D+00 -0.00000000D+00
 -0.00000000D+00 -0.41680203D-08  0.19770291D-08  0.00000000D+00 -0.00000000D+00
  0.00000000D+00 -0.00000000D+00 -0.00000000D+00 -0.00000000D+00 -0.00000000D+00
 -0.00000000D+00  0.00000000D+00  0.00000000D+00 -0.00000000D+00 -0.00000000D+00
 -0.53016549D-06  0.25147371D-06  0.00000000D+00  0.81445015D-05 -0.38631861D-05
  0.00000000D+00 -0.15895745D-03  0.75398380D-04  0.00000000D+00  0.68621110D-03
 -0.32549091D-03  0.00000000D+00 -0.00000000D+00 -0.00000000D+00  0.13877929D-07
 -0.65827273D-08  0.00000000D+00 -0.00000000D+00 -0.00000000D+00 -0.00000000D+00
  0.41680203D-08 -0.19770291D-08 -0.00000000D+00
MO   11     MO 0.0        OCC NO =    0.0000000  ORB. ENERGY =    0.010418
  0.00000000D+00  0.00000000D+00 -0.00000000D+00 -0.00000000D+00 -0.00000000D+00
 -0.00000000D+00 -0.00000000D+00  0.00000000D+00  0.00000000D+00 -0.00000000D+00
 -0.00000000D+00  0.25147371D-06  0.53016549D-06 -0.00000000D+00 -0.38631861D-05
 -0.81445015D-05 -0.00000000D+00  0.75398380D-04  0.15895745D-03 -0.00000000D+00
 -0.32549091D-03 -0.68621110D-03 -0.00000000D+00 -0.00000000D+00 -0.00000000D+00
  0.65827273D-08  0.13877929D-07  0.00000000D+00 -0.00000000D+00  0.00000000D+00
  0.00000000D+00  0.19770291D-08  0.41680203D-08 -0.00000000D+00  0.00000000D+00
  0.00000000D+00  0.00000000D+00  0.00000000D+00 -0.00000000D+00  0.00000000D+00
  0.00000000D+00 -0.00000000D+00 -0.00000000D+00  0.00000000D+00  0.00000000D+00
  0.25147371D-06  0.53016549D-06  0.00000000D+00 -0.38631861D-05 -0.81445015D-05
 -0.00000000D+00  0.75398380D-04  0.15895745D-03 -0.00000000D+00 -0.32549091D-03
 -0.68621110D-03 -0.00000000D+00  0.00000000D+00  0.00000000D+00 -0.65827273D-08
 -0.13877929D-07 -0.00000000D+00 -0.00000000D+00 -0.00000000D+00 -0.00000000D+00
 -0.19770291D-08 -0.41680203D-08  0.00000000D+00
MO   12     MO 0.0        OCC NO =    0.0000000  ORB. ENERGY =    0.010564
 -0.48511438D-05  0.67802552D-04  0.49526832D-01  0.10883223D-01  0.44603864D-03
  0.19892449D-02  0.16835534D-02 -0.35308610D-02 -0.73422984D-03  0.74104523D-04
  0.83090126D-06  0.00000000D+00 -0.00000000D+00 -0.71801212D-05 -0.00000000D+00
  0.00000000D+00  0.90297642D-03  0.00000000D+00 -0.00000000D+00  0.18752918D-02
 -0.00000000D+00  0.00000000D+00 -0.12751968D-08  0.32678554D-07  0.32678554D-07
  0.00000000D+00 -0.00000000D+00 -0.00000000D+00  0.18052292D-06 -0.17269976D-06
 -0.17269976D-06 -0.00000000D+00  0.00000000D+00  0.00000000D+00  0.48511438D-05
 -0.67802552D-04 -0.49526832D-01 -0.10883223D-01 -0.44603864D-03 -0.19892449D-02
 -0.16835534D-02  0.35308610D-02  0.73422984D-03 -0.74104523D-04  0.83090126D-06
 -0.00000000D+00  0.00000000D+00 -0.71801212D-05  0.00000000D+00 -0.00000000D+00
  0.90297642D-03 -0.00000000D+00  0.00000000D+00  0.18752918D-02  0.00000000D+00
 -0.00000000D+00  0.12751968D-08 -0.32678554D-07 -0.32678554D-07  0.00000000D+00
 -0.00000000D+00  0.00000000D+00 -0.18052292D-06  0.17269976D-06  0.17269976D-06
 -0.00000000D+00  0.00000000D+00 -0.00000000D+00
MO   13     MO 0.0        OCC NO =    0.0000000  ORB. ENERGY =    0.013218
 -0.43900366D-03  0.88409919D-03  0.26191586D-03 -0.13094935D-01  0.24899034D-01
 -0.39834110D-02  0.14179686D-01 -0.18522971D-01 -0.38203415D-04 -0.85115387D-03
  0.71921067D-04 -0.00000000D+00 -0.00000000D+00 -0.24221140D-04  0.00000000D+00
  0.00000000D+00  0.12912292D-03 -0.00000000D+00 -0.00000000D+00 -0.31324123D-03
  0.00000000D+00  0.00000000D+00  0.14470361D-06 -0.11488368D-07 -0.11488368D-07
 -0.00000000D+00 -0.00000000D+00  0.00000000D+00 -0.35931837D-06 -0.26038126D-06
 -0.26038126D-06  0.00000000D+00  0.00000000D+00  0.00000000D+00 -0.43900366D-03
  0.88409919D-03  0.26191586D-03 -0.13094935D-01  0.24899034D-01 -0.39834110D-02
  0.14179686D-01 -0.18522971D-01 -0.38203415D-04 -0.85115387D-03 -0.71921067D-04
  0.00000000D+00  0.00000000D+00  0.24221140D-04 -0.00000000D+00 -0.00000000D+00
 -0.12912292D-03  0.00000000D+00  0.00000000D+00  0.31324123D-03 -0.00000000D+00
 -0.00000000D+00  0.14470361D-06 -0.11488368D-07 -0.11488368D-07 -0.00000000D+00
 -0.00000000D+00 -0.00000000D+00 -0.35931837D-06 -0.26038126D-06 -0.26038126D-06
  0.00000000D+00  0.00000000D+00 -0.00000000D+00
MO   14     MO 0.0        OCC NO =    0.0000000  ORB. ENERGY =    0.015605
  0.00000000D+00 -0.00000000D+00  0.00000000D+00 -0.00000000D+00  0.00000000D+00
 -0.00000000D+00  0.00000000D+00 -0.00000000D+00 -0.00000000D+00 -0.00000000D+00
 -0.00000000D+00  0.45167361D-03  0.72275589D-04 -0.00000000D+00 -0.37677879D-03
 -0.60291123D-04 -0.00000000D+00  0.52398939D-03  0.83847365D-04  0.00000000D+00
 -0.10837142D-02 -0.17341301D-03 -0.00000000D+00  0.00000000D+00  0.00000000D+00
  0.97359533D-06  0.15579209D-06  0.00000000D+00 -0.00000000D+00  0.00000000D+00
  0.00000000D+00 -0.21684869D-05 -0.34699541D-06 -0.00000000D+00 -0.00000000D+00
  0.00000000D+00  0.00000000D+00 -0.00000000D+00  0.00000000D+00 -0.00000000D+00
  0.00000000D+00 -0.00000000D+00  0.00000000D+00 -0.00000000D+00  0.00000000D+00
 -0.45167361D-03 -0.72275589D-04 -0.00000000D+00  0.37677879D-03  0.60291123D-04
  0.00000000D+00 -0.52398939D-03 -0.83847365D-04 -0.00000000D+00  0.10837142D-02
  0.17341301D-03 -0.00000000D+00  0.00000000D+00  0.00000000D+00  0.97359533D-06
  0.15579209D-06 -0.00000000D+00  0.00000000D+00  0.00000000D+00  0.00000000D+00
 -0.21684869D-05 -0.34699541D-06  0.00000000D+00
MO   15     MO 0.0        OCC NO =    0.0000000  ORB. ENERGY =    0.015605
 -0.00000000D+00 -0.00000000D+00 -0.00000000D+00  0.00000000D+00 -0.00000000D+00
  0.00000000D+00 -0.00000000D+00  0.00000000D+00 -0.00000000D+00  0.00000000D+00
  0.00000000D+00  0.72275589D-04 -0.45167361D-03 -0.00000000D+00 -0.60291123D-04
  0.37677879D-03  0.00000000D+00  0.83847365D-04 -0.52398939D-03 -0.00000000D+00
 -0.17341301D-03  0.10837142D-02  0.00000000D+00 -0.00000000D+00 -0.00000000D+00
  0.15579209D-06 -0.97359533D-06  0.00000000D+00 -0.00000000D+00 -0.00000000D+00
 -0.00000000D+00 -0.34699541D-06  0.21684869D-05 -0.00000000D+00  0.00000000D+00
  0.00000000D+00 -0.00000000D+00 -0.00000000D+00  0.00000000D+00 -0.00000000D+00
  0.00000000D+00 -0.00000000D+00 -0.00000000D+00 -0.00000000D+00 -0.00000000D+00
 -0.72275589D-04  0.45167361D-03 -0.00000000D+00  0.60291123D-04 -0.37677879D-03
 -0.00000000D+00 -0.83847365D-04  0.52398939D-03  0.00000000D+00  0.17341301D-03
 -0.10837142D-02  0.00000000D+00  0.00000000D+00  0.00000000D+00  0.15579209D-06
 -0.97359533D-06 -0.00000000D+00  0.00000000D+00 -0.00000000D+00 -0.00000000D+00
 -0.34699541D-06  0.21684869D-05  0.00000000D+00
MO   16     MO 0.0        OCC NO =    0.0000000  ORB. ENERGY =    0.015720
  0.11773837D-04  0.91759822D-04 -0.90795128D-03  0.30224604D-01 -0.24983180D-01
  0.48326897D-02 -0.12077740D-01  0.15057714D-01 -0.32072060D-03  0.80697777D-03
 -0.19265883D-05  0.00000000D+00  0.00000000D+00 -0.13184910D-04  0.00000000D+00
 -0.00000000D+00  0.22365625D-03 -0.00000000D+00  0.00000000D+00  0.61808559D-03
  0.00000000D+00 -0.00000000D+00 -0.44980283D-07 -0.32343434D-07 -0.32343434D-07
  0.00000000D+00  0.00000000D+00  0.00000000D+00 -0.61443479D-06 -0.69863277D-06
 -0.69863277D-06  0.00000000D+00 -0.00000000D+00  0.00000000D+00 -0.11773837D-04
 -0.91759822D-04  0.90795128D-03 -0.30224604D-01  0.24983180D-01 -0.48326897D-02
  0.12077740D-01 -0.15057714D-01  0.32072060D-03 -0.80697777D-03 -0.19265883D-05
 -0.00000000D+00 -0.00000000D+00 -0.13184910D-04 -0.00000000D+00  0.00000000D+00
  0.22365625D-03  0.00000000D+00 -0.00000000D+00  0.61808559D-03 -0.00000000D+00
  0.00000000D+00  0.44980283D-07  0.32343434D-07  0.32343434D-07  0.00000000D+00
  0.00000000D+00 -0.00000000D+00  0.61443479D-06  0.69863277D-06  0.69863277D-06
  0.00000000D+00 -0.00000000D+00 -0.00000000D+00
MO   17     MO 0.0        OCC NO =    0.0000000  ORB. ENERGY =    0.016006
 -0.28136540D-02  0.49426990D-02 -0.67731704D-02  0.86660315D-02 -0.66976830D-02
  0.12319948D-02 -0.28284677D-02  0.35722936D-02 -0.33506572D-04  0.17750976D-03
  0.29825287D-03 -0.00000000D+00 -0.00000000D+00 -0.32375591D-03  0.00000000D+00
 -0.00000000D+00  0.40631178D-03  0.00000000D+00  0.00000000D+00 -0.71170906D-03
 -0.00000000D+00 -0.00000000D+00  0.63737447D-06 -0.13634628D-07 -0.13634628D-07
 -0.00000000D+00 -0.00000000D+00  0.00000000D+00 -0.23535237D-05 -0.42683316D-06
 -0.42683316D-06  0.00000000D+00 -0.00000000D+00 -0.00000000D+00 -0.28136540D-02
  0.49426990D-02 -0.67731704D-02  0.86660315D-02 -0.66976830D-02  0.12319948D-02
 -0.28284677D-02  0.35722936D-02 -0.33506572D-04  0.17750976D-03 -0.29825287D-03
  0.00000000D+00  0.00000000D+00  0.32375591D-03 -0.00000000D+00  0.00000000D+00
 -0.40631178D-03 -0.00000000D+00 -0.00000000D+00  0.71170906D-03  0.00000000D+00
  0.00000000D+00  0.63737447D-06 -0.13634628D-07 -0.13634628D-07 -0.00000000D+00
 -0.00000000D+00 -0.00000000D+00 -0.23535237D-05 -0.42683316D-06 -0.42683316D-06
  0.00000000D+00 -0.00000000D+00  0.00000000D+00
MO   18     MO 0.0        OCC NO =    0.0000000  ORB. ENERGY =    0.022390
  0.39062973D-04  0.37156304D-03  0.95895419D-01 -0.39286013D-01  0.17415017D-01
 -0.51089866D-02  0.60469097D-02 -0.61710452D-02  0.86196942D-03 -0.56739643D-03
 -0.64030179D-05  0.00000000D+00 -0.00000000D+00 -0.43864734D-04 -0.00000000D+00
  0.00000000D+00  0.23238773D-02  0.00000000D+00 -0.00000000D+00 -0.23909265D-02
  0.00000000D+00 -0.00000000D+00 -0.17353796D-06 -0.98670554D-07 -0.98670554D-07
  0.00000000D+00 -0.00000000D+00 -0.00000000D+00 -0.18628270D-05 -0.25067325D-05
 -0.25067325D-05 -0.00000000D+00  0.00000000D+00  0.00000000D+00 -0.39062973D-04
 -0.37156304D-03 -0.95895419D-01  0.39286013D-01 -0.17415017D-01  0.51089866D-02
 -0.60469097D-02  0.61710452D-02 -0.86196942D-03  0.56739643D-03 -0.64030181D-05
 -0.00000000D+00  0.00000000D+00 -0.43864734D-04  0.00000000D+00 -0.00000000D+00
  0.23238773D-02 -0.00000000D+00  0.00000000D+00 -0.23909265D-02 -0.00000000D+00
  0.00000000D+00  0.17353796D-06  0.98670554D-07  0.98670554D-07  0.00000000D+00
 -0.00000000D+00  0.00000000D+00  0.18628270D-05  0.25067325D-05  0.25067325D-05
 -0.00000000D+00  0.00000000D+00 -0.00000000D+00
MO   19     MO 0.0        OCC NO =    0.0000000  ORB. ENERGY =    0.028210
  0.32330906D-02  0.17658130D-02 -0.17203816D-01  0.19267278D-01 -0.11963967D-01
 -0.53333368D-02 -0.34359418D-02  0.78339858D-02  0.18853357D-02 -0.23572036D-03
 -0.87715673D-04  0.00000000D+00  0.00000000D+00  0.35622250D-03 -0.00000000D+00
 -0.00000000D+00  0.10918098D-04  0.00000000D+00  0.00000000D+00 -0.78862198D-04
 -0.00000000D+00 -0.00000000D+00 -0.27315116D-06 -0.78737425D-07 -0.78737425D-07
  0.00000000D+00  0.00000000D+00 -0.00000000D+00  0.56856801D-06 -0.17398007D-05
 -0.17398007D-05 -0.00000000D+00 -0.00000000D+00 -0.00000000D+00  0.32330906D-02
  0.17658130D-02 -0.17203816D-01  0.19267278D-01 -0.11963967D-01 -0.53333368D-02
 -0.34359418D-02  0.78339858D-02  0.18853357D-02 -0.23572036D-03  0.87715673D-04
 -0.00000000D+00 -0.00000000D+00 -0.35622250D-03  0.00000000D+00  0.00000000D+00
 -0.10918098D-04 -0.00000000D+00 -0.00000000D+00  0.78862198D-04  0.00000000D+00
  0.00000000D+00 -0.27315116D-06 -0.78737425D-07 -0.78737425D-07  0.00000000D+00
  0.00000000D+00  0.00000000D+00  0.56856801D-06 -0.17398007D-05 -0.17398007D-05
 -0.00000000D+00 -0.00000000D+00  0.00000000D+00
MO   20     MO 0.0        OCC NO =    0.0000000  ORB. ENERGY =    0.036637
  0.19585818D-03  0.38340037D-03 -0.53087027D-02  0.55291332D-02  0.78923340D-03
 -0.11552599D-01  0.21997568D-02  0.26953518D-02  0.29292610D-02 -0.80674090D-03
 -0.31868078D-04 -0.00000000D+00  0.00000000D+00 -0.30313801D-04  0.00000000D+00
 -0.00000000D+00  0.51014478D-03 -0.00000000D+00  0.00000000D+00 -0.60203161D-03
  0.00000000D+00 -0.00000000D+00 -0.77670836D-06 -0.78444316D-06 -0.78444316D-06
 -0.00000000D+00  0.00000000D+00 -0.00000000D+00 -0.67468106D-05 -0.64830597D-05
 -0.64830597D-05  0.00000000D+00 -0.00000000D+00  0.00000000D+00 -0.19585818D-03
 -0.38340037D-03  0.53087027D-02 -0.55291332D-02 -0.78923340D-03  0.11552599D-01
 -0.21997568D-02 -0.26953518D-02 -0.29292610D-02  0.80674090D-03 -0.31868078D-04
  0.00000000D+00 -0.00000000D+00 -0.30313801D-04 -0.00000000D+00  0.00000000D+00
  0.51014478D-03  0.00000000D+00 -0.00000000D+00 -0.60203161D-03 -0.00000000D+00
  0.00000000D+00  0.77670836D-06  0.78444316D-06  0.78444316D-06 -0.00000000D+00
  0.00000000D+00  0.00000000D+00  0.67468106D-05  0.64830597D-05  0.64830597D-05
  0.00000000D+00 -0.00000000D+00 -0.00000000D+00
MO   21     MO 0.0        OCC NO =    0.0000000  ORB. ENERGY =    0.038015
 -0.00000000D+00  0.00000000D+00 -0.00000000D+00  0.00000000D+00 -0.00000000D+00
  0.00000000D+00 -0.00000000D+00 -0.00000000D+00 -0.00000000D+00  0.00000000D+00
  0.00000000D+00  0.00000000D+00  0.00000000D+00 -0.00000000D+00 -0.00000000D+00
 -0.00000000D+00 -0.00000000D+00  0.00000000D+00  0.00000000D+00  0.00000000D+00
 -0.00000000D+00  0.00000000D+00  0.00000000D+00 -0.43745770D-07  0.43745770D-07
  0.00000000D+00  0.00000000D+00 -0.20058166D-07  0.00000000D+00  0.60327553D-06
 -0.60327553D-06 -0.00000000D+00 -0.00000000D+00  0.27661191D-06 -0.00000000D+00
  0.00000000D+00 -0.00000000D+00  0.00000000D+00 -0.00000000D+00 -0.00000000D+00
  0.00000000D+00  0.00000000D+00  0.00000000D+00 -0.00000000D+00 -0.00000000D+00
 -0.00000000D+00 -0.00000000D+00  0.00000000D+00  0.00000000D+00  0.00000000D+00
 -0.00000000D+00 -0.00000000D+00 -0.00000000D+00  0.00000000D+00  0.00000000D+00
  0.00000000D+00  0.00000000D+00 -0.43745770D-07  0.43745770D-07  0.00000000D+00
  0.00000000D+00 -0.20058166D-07 -0.00000000D+00  0.60327553D-06 -0.60327553D-06
 -0.00000000D+00 -0.00000000D+00  0.27661191D-06
MO   22     MO 0.0        OCC NO =    0.0000000  ORB. ENERGY =    0.038015
  0.00000000D+00 -0.00000000D+00  0.00000000D+00 -0.00000000D+00 -0.00000000D+00
  0.00000000D+00 -0.00000000D+00 -0.00000000D+00 -0.00000000D+00  0.00000000D+00
 -0.00000000D+00 -0.00000000D+00 -0.00000000D+00  0.00000000D+00 -0.00000000D+00
 -0.00000000D+00 -0.00000000D+00  0.00000000D+00  0.00000000D+00  0.00000000D+00
  0.00000000D+00 -0.00000000D+00 -0.00000000D+00 -0.10029083D-07  0.10029083D-07
 -0.00000000D+00 -0.00000000D+00  0.87491541D-07  0.00000000D+00  0.13830595D-06
 -0.13830595D-06 -0.00000000D+00 -0.00000000D+00 -0.12065511D-05  0.00000000D+00
 -0.00000000D+00  0.00000000D+00 -0.00000000D+00  0.00000000D+00 -0.00000000D+00
 -0.00000000D+00  0.00000000D+00 -0.00000000D+00  0.00000000D+00  0.00000000D+00
  0.00000000D+00  0.00000000D+00 -0.00000000D+00  0.00000000D+00  0.00000000D+00
 -0.00000000D+00 -0.00000000D+00 -0.00000000D+00  0.00000000D+00  0.00000000D+00
  0.00000000D+00 -0.00000000D+00 -0.10029083D-07  0.10029083D-07 -0.00000000D+00
 -0.00000000D+00  0.87491541D-07  0.00000000D+00  0.13830595D-06 -0.13830595D-06
 -0.00000000D+00 -0.00000000D+00 -0.12065511D-05
MO   23     MO 0.0        OCC NO =    0.0000000  ORB. ENERGY =    0.042418
  0.00000000D+00 -0.00000000D+00  0.00000000D+00 -0.00000000D+00 -0.00000000D+00
  0.00000000D+00 -0.00000000D+00 -0.00000000D+00 -0.00000000D+00  0.00000000D+00
 -0.00000000D+00 -0.14391331D-05  0.21309466D-07  0.00000000D+00  0.49466013D-04
 -0.73245423D-06 -0.00000000D+00 -0.21002780D-03  0.31099275D-05  0.00000000D+00
  0.31880857D-03 -0.47206712D-05 -0.00000000D+00 -0.00000000D+00 -0.00000000D+00
 -0.50036150D-06  0.74089639D-08 -0.00000000D+00  0.00000000D+00 -0.00000000D+00
 -0.00000000D+00  0.24993074D-05 -0.37007797D-07  0.00000000D+00  0.00000000D+00
 -0.00000000D+00  0.00000000D+00 -0.00000000D+00  0.00000000D+00 -0.00000000D+00
  0.00000000D+00  0.00000000D+00  0.00000000D+00 -0.00000000D+00  0.00000000D+00
 -0.14391329D-05  0.21309608D-07 -0.00000000D+00  0.49466013D-04 -0.73245423D-06
  0.00000000D+00 -0.21002780D-03  0.31099275D-05  0.00000000D+00  0.31880857D-03
 -0.47206712D-05 -0.00000000D+00  0.00000000D+00  0.00000000D+00  0.50036150D-06
 -0.74089639D-08  0.00000000D+00  0.00000000D+00  0.00000000D+00  0.00000000D+00
 -0.24993074D-05  0.37007797D-07  0.00000000D+00
MO   24     MO 0.0        OCC NO =    0.0000000  ORB. ENERGY =    0.042418
  0.00000000D+00 -0.00000000D+00 -0.00000000D+00  0.00000000D+00 -0.00000000D+00
  0.00000000D+00 -0.00000000D+00 -0.00000000D+00 -0.00000000D+00  0.00000000D+00
 -0.00000000D+00 -0.21309608D-07 -0.14391328D-05  0.00000000D+00  0.73245423D-06
  0.49466013D-04 -0.00000000D+00 -0.31099275D-05 -0.21002780D-03  0.00000000D+00
  0.47206712D-05  0.31880857D-03 -0.00000000D+00 -0.00000000D+00 -0.00000000D+00
 -0.74089639D-08 -0.50036150D-06  0.00000000D+00  0.00000000D+00 -0.00000000D+00
 -0.00000000D+00  0.37007797D-07  0.24993074D-05 -0.00000000D+00  0.00000000D+00
 -0.00000000D+00  0.00000000D+00 -0.00000000D+00  0.00000000D+00 -0.00000000D+00
  0.00000000D+00  0.00000000D+00  0.00000000D+00 -0.00000000D+00  0.00000000D+00
 -0.21309608D-07 -0.14391332D-05 -0.00000000D+00  0.73245423D-06  0.49466013D-04