 Molden2AIM, Version 3.1.0 (02/25/2015)           Time: Thu Oct 17 19:55:42 2024
GAUSSIAN             68 MOL ORBITALS     68 PRIMITIVES        2 NUCLEI
  Be   1    (CENTRE  1)   0.00000000  0.00000000  0.00000000  CHARGE =  4.0
  Be   2    (CENTRE  2)  49.40000000  0.00000000  0.00000000  CHARGE =  4.0
CENTRE ASSIGNMENTS    1  1  1  1  1  1  1  1  1  1  1  1  1  1  1  1  1  1  1  1
CENTRE ASSIGNMENTS    1  1  1  1  1  1  1  1  1  1  1  1  1  1  2  2  2  2  2  2
CENTRE ASSIGNMENTS    2  2  2  2  2  2  2  2  2  2  2  2  2  2  2  2  2  2  2  2
CENTRE ASSIGNMENTS    2  2  2  2  2  2  2  2
TYPE ASSIGNMENTS      1  1  1  1  1  1  1  1  1  1  2  3  4  2  3  4  2  3  4  2
TYPE ASSIGNMENTS      3  4  5  6  7  8  9 10  5  6  7  8  9 10  1  1  1  1  1  1
TYPE ASSIGNMENTS      1  1  1  1  2  3  4  2  3  4  2  3  4  2  3  4  5  6  7  8
TYPE ASSIGNMENTS      9 10  5  6  7  8  9 10
EXPONENTS  0.1000000D-03 0.3000000D-03 0.9000000D-03 0.2700000D-02 0.8100000D-02
EXPONENTS  0.2430000D-01 0.7290000D-01 0.2187000D+00 0.6561000D+00 0.1968300D+01
EXPONENTS  0.1000000D-03 0.1000000D-03 0.1000000D-03 0.3000000D-03 0.3000000D-03
EXPONENTS  0.3000000D-03 0.9000000D-03 0.9000000D-03 0.9000000D-03 0.2700000D-02
EXPONENTS  0.2700000D-02 0.2700000D-02 0.1000000D-03 0.1000000D-03 0.1000000D-03
EXPONENTS  0.1000000D-03 0.1000000D-03 0.1000000D-03 0.3000000D-03 0.3000000D-03
EXPONENTS  0.3000000D-03 0.3000000D-03 0.3000000D-03 0.3000000D-03 0.1000000D-03
EXPONENTS  0.3000000D-03 0.9000000D-03 0.2700000D-02 0.8100000D-02 0.2430000D-01
EXPONENTS  0.7290000D-01 0.2187000D+00 0.6561000D+00 0.1968300D+01 0.1000000D-03
EXPONENTS  0.1000000D-03 0.1000000D-03 0.3000000D-03 0.3000000D-03 0.3000000D-03
EXPONENTS  0.9000000D-03 0.9000000D-03 0.9000000D-03 0.2700000D-02 0.2700000D-02
EXPONENTS  0.2700000D-02 0.1000000D-03 0.1000000D-03 0.1000000D-03 0.1000000D-03
EXPONENTS  0.1000000D-03 0.1000000D-03 0.3000000D-03 0.3000000D-03 0.3000000D-03
EXPONENTS  0.3000000D-03 0.3000000D-03 0.3000000D-03
MO    1     MO 0.0        OCC NO =    1.0000000  ORB. ENERGY =   -0.000012
  0.41616433D-04  0.12845979D-03 -0.55780056D-03 -0.18853312D-02 -0.42024528D-02
 -0.77584373D-02 -0.10512100D-01  0.19557647D-01  0.31201274D-02 -0.12191657D-03
 -0.33355657D-06  0.00000000D+00  0.00000000D+00 -0.20062401D-06  0.00000000D+00
 -0.00000000D+00 -0.29831360D-05 -0.00000000D+00 -0.00000000D+00 -0.16027932D-03
  0.00000000D+00  0.00000000D+00 -0.24637472D-08 -0.11572286D-08 -0.11572286D-08
  0.00000000D+00  0.00000000D+00 -0.00000000D+00 -0.42216794D-07 -0.28886346D-07
 -0.28886346D-07  0.00000000D+00  0.00000000D+00  0.00000000D+00  0.41616433D-04
  0.12845979D-03 -0.55780056D-03 -0.18853312D-02 -0.42024528D-02 -0.77584373D-02
 -0.10512100D-01  0.19557647D-01  0.31201274D-02 -0.12191657D-03  0.33355657D-06
 -0.00000000D+00 -0.00000000D+00  0.20062401D-06 -0.00000000D+00 -0.00000000D+00
  0.29831360D-05  0.00000000D+00  0.00000000D+00  0.16027932D-03 -0.00000000D+00
  0.00000000D+00 -0.24637472D-08 -0.11572286D-08 -0.11572286D-08  0.00000000D+00
  0.00000000D+00  0.00000000D+00 -0.42216794D-07 -0.28886346D-07 -0.28886346D-07
  0.00000000D+00 -0.00000000D+00 -0.00000000D+00
MO    2     MO 0.0        OCC NO =    0.0000000  ORB. ENERGY =    0.000411
 -0.15244749D-04  0.22971868D-02 -0.29317012D-04  0.27102824D-02  0.42890113D-02
  0.89877383D-02  0.11296628D-01 -0.21379223D-01 -0.35630906D-02  0.18257876D-03
  0.29252782D-06  0.00000000D+00  0.00000000D+00  0.41055221D-04 -0.00000000D+00
  0.00000000D+00 -0.22370804D-04 -0.00000000D+00 -0.00000000D+00  0.18134166D-03
  0.00000000D+00  0.00000000D+00  0.30567502D-08  0.27480294D-08  0.27480294D-08
  0.00000000D+00  0.00000000D+00  0.00000000D+00  0.25656055D-06  0.49496967D-07
  0.49496967D-07 -0.00000000D+00 -0.00000000D+00 -0.00000000D+00  0.15244749D-04
 -0.22971868D-02  0.29317012D-04 -0.27102824D-02 -0.42890113D-02 -0.89877383D-02
 -0.11296628D-01  0.21379223D-01  0.35630906D-02 -0.18257876D-03  0.29252782D-06
 -0.00000000D+00 -0.00000000D+00  0.41055221D-04  0.00000000D+00  0.00000000D+00
 -0.22370804D-04 -0.00000000D+00 -0.00000000D+00  0.18134166D-03  0.00000000D+00
  0.00000000D+00 -0.30567502D-08 -0.27480294D-08 -0.27480294D-08  0.00000000D+00
  0.00000000D+00 -0.00000000D+00 -0.25656055D-06 -0.49496967D-07 -0.49496967D-07
 -0.00000000D+00  0.00000000D+00  0.00000000D+00
MO    3     MO 0.0        OCC NO =    0.0000000  ORB. ENERGY =    0.005260
  0.43791988D-03  0.26374233D-03 -0.34553681D-02  0.47742314D-02  0.20351873D-02
  0.65538325D-02  0.58380720D-02 -0.12052955D-01 -0.24233528D-02  0.23383725D-03
 -0.11956184D-04 -0.00000000D+00  0.00000000D+00  0.16181054D-04 -0.00000000D+00
  0.00000000D+00 -0.10705985D-03  0.00000000D+00 -0.00000000D+00  0.68813295D-04
  0.00000000D+00  0.00000000D+00 -0.64147633D-07 -0.48641907D-08 -0.48641907D-08
 -0.00000000D+00  0.00000000D+00  0.00000000D+00 -0.19993922D-07 -0.10864296D-06
 -0.10864296D-06 -0.00000000D+00 -0.00000000D+00 -0.00000000D+00  0.43791988D-03
  0.26374233D-03 -0.34553681D-02  0.47742314D-02  0.20351873D-02  0.65538325D-02
  0.58380720D-02 -0.12052955D-01 -0.24233528D-02  0.23383725D-03  0.11956184D-04
  0.00000000D+00 -0.00000000D+00 -0.16181054D-04  0.00000000D+00  0.00000000D+00
  0.10705985D-03 -0.00000000D+00 -0.00000000D+00 -0.68813295D-04  0.00000000D+00
  0.00000000D+00 -0.64147633D-07 -0.48641907D-08 -0.48641907D-08 -0.00000000D+00
  0.00000000D+00 -0.00000000D+00 -0.19993922D-07 -0.10864296D-06 -0.10864296D-06
 -0.00000000D+00  0.00000000D+00 -0.00000000D+00
MO    4     MO 0.0        OCC NO =    0.0000000  ORB. ENERGY =    0.011378
 -0.17145933D-04  0.77388365D-02 -0.37377067D-02 -0.27206591D-02  0.11478531D-01
  0.30448529D-02  0.96559709D-02 -0.15611580D-01 -0.16301942D-02 -0.19589081D-03
 -0.13635179D-05  0.00000000D+00  0.00000000D+00  0.12641956D-03 -0.00000000D+00
  0.00000000D+00 -0.70203898D-04  0.00000000D+00  0.00000000D+00 -0.40131199D-03
  0.00000000D+00  0.00000000D+00 -0.13901865D-07 -0.10787738D-07 -0.10787738D-07
  0.00000000D+00  0.00000000D+00  0.00000000D+00  0.50131132D-06 -0.13802087D-06
 -0.13802087D-06 -0.00000000D+00  0.00000000D+00 -0.00000000D+00  0.17145933D-04
 -0.77388365D-02  0.37377067D-02  0.27206591D-02 -0.11478531D-01 -0.30448529D-02
 -0.96559709D-02  0.15611580D-01  0.16301942D-02  0.19589081D-03 -0.13635179D-05
 -0.00000000D+00 -0.00000000D+00  0.12641956D-03  0.00000000D+00 -0.00000000D+00
 -0.70203898D-04 -0.00000000D+00  0.00000000D+00 -0.40131199D-03  0.00000000D+00
  0.00000000D+00  0.13901865D-07  0.10787738D-07  0.10787738D-07  0.00000000D+00
  0.00000000D+00 -0.00000000D+00 -0.50131132D-06  0.13802087D-06  0.13802087D-06
 -0.00000000D+00  0.00000000D+00  0.00000000D+00
MO    5     MO 0.0        OCC NO =    0.0000000  ORB. ENERGY =    0.011693
 -0.00000000D+00  0.00000000D+00 -0.00000000D+00  0.00000000D+00 -0.00000000D+00
 -0.00000000D+00 -0.00000000D+00  0.00000000D+00 -0.00000000D+00  0.00000000D+00
  0.00000000D+00  0.59365957D-06  0.28924909D-06  0.00000000D+00 -0.62927658D-05
 -0.30660275D-05 -0.00000000D+00  0.83756457D-04  0.40808703D-04  0.00000000D+00
  0.25900417D-03  0.12619474D-03  0.00000000D+00  0.00000000D+00  0.00000000D+00
 -0.11573319D-07 -0.56388744D-08  0.00000000D+00  0.00000000D+00  0.00000000D+00
  0.00000000D+00  0.14154842D-06  0.68966714D-07  0.00000000D+00  0.00000000D+00
 -0.00000000D+00 -0.00000000D+00 -0.00000000D+00  0.00000000D+00  0.00000000D+00
  0.00000000D+00 -0.00000000D+00 -0.00000000D+00  0.00000000D+00  0.00000000D+00
  0.59365957D-06  0.28924909D-06  0.00000000D+00 -0.62927658D-05 -0.30660275D-05
 -0.00000000D+00  0.83756457D-04  0.40808703D-04  0.00000000D+00  0.25900417D-03
  0.12619474D-03 -0.00000000D+00 -0.00000000D+00 -0.00000000D+00  0.11573319D-07
  0.56388744D-08 -0.00000000D+00 -0.00000000D+00 -0.00000000D+00 -0.00000000D+00
 -0.14154842D-06 -0.68966714D-07 -0.00000000D+00
MO    6     MO 0.0        OCC NO =    0.0000000  ORB. ENERGY =    0.011693
  0.00000000D+00 -0.00000000D+00  0.00000000D+00 -0.00000000D+00  0.00000000D+00
  0.00000000D+00  0.00000000D+00 -0.00000000D+00 -0.00000000D+00  0.00000000D+00
 -0.00000000D+00  0.28924909D-06 -0.59365957D-06 -0.00000000D+00 -0.30660275D-05
  0.62927658D-05  0.00000000D+00  0.40808703D-04 -0.83756457D-04 -0.00000000D+00
  0.12619474D-03 -0.25900417D-03 -0.00000000D+00 -0.00000000D+00 -0.00000000D+00
 -0.56388744D-08  0.11573319D-07  0.00000000D+00 -0.00000000D+00 -0.00000000D+00
 -0.00000000D+00  0.68966714D-07 -0.14154842D-06 -0.00000000D+00 -0.00000000D+00
  0.00000000D+00  0.00000000D+00  0.00000000D+00 -0.00000000D+00 -0.00000000D+00
 -0.00000000D+00  0.00000000D+00 -0.00000000D+00  0.00000000D+00 -0.00000000D+00
  0.28924909D-06 -0.59365957D-06 -0.00000000D+00 -0.30660275D-05  0.62927658D-05
  0.00000000D+00  0.40808703D-04 -0.83756457D-04 -0.00000000D+00  0.12619474D-03
 -0.25900417D-03  0.00000000D+00  0.00000000D+00  0.00000000D+00  0.56388744D-08
 -0.11573319D-07 -0.00000000D+00  0.00000000D+00  0.00000000D+00  0.00000000D+00
 -0.68966714D-07  0.14154842D-06  0.00000000D+00
MO    7     MO 0.0        OCC NO =    0.0000000  ORB. ENERGY =    0.012590
  0.43388868D-05  0.50569827D-03  0.14582147D-02 -0.11678305D-01  0.15931327D-01
 -0.17351356D-02  0.10148589D-01 -0.13762612D-01 -0.25728205D-03 -0.55709263D-03
  0.11593428D-04 -0.00000000D+00 -0.00000000D+00 -0.11630176D-04 -0.00000000D+00
 -0.00000000D+00  0.14407564D-03  0.00000000D+00  0.00000000D+00 -0.72087943D-03
  0.00000000D+00  0.00000000D+00  0.47697769D-07 -0.96806644D-08 -0.96806644D-08
 -0.00000000D+00 -0.00000000D+00  0.00000000D+00 -0.23082443D-06 -0.21578035D-06
 -0.21578035D-06 -0.00000000D+00 -0.00000000D+00 -0.00000000D+00  0.43388868D-05
  0.50569827D-03  0.14582147D-02 -0.11678305D-01  0.15931327D-01 -0.17351356D-02
  0.10148589D-01 -0.13762612D-01 -0.25728205D-03 -0.55709263D-03 -0.11593428D-04
  0.00000000D+00  0.00000000D+00  0.11630176D-04  0.00000000D+00  0.00000000D+00
 -0.14407564D-03 -0.00000000D+00 -0.00000000D+00  0.72087943D-03  0.00000000D+00
  0.00000000D+00  0.47697769D-07 -0.96806644D-08 -0.96806644D-08 -0.00000000D+00
 -0.00000000D+00 -0.00000000D+00 -0.23082443D-06 -0.21578035D-06 -0.21578035D-06
 -0.00000000D+00 -0.00000000D+00  0.00000000D+00
MO    8     MO 0.0        OCC NO =    0.0000000  ORB. ENERGY =    0.013914
 -0.00000000D+00  0.00000000D+00 -0.00000000D+00  0.00000000D+00 -0.00000000D+00
 -0.00000000D+00 -0.00000000D+00  0.00000000D+00  0.00000000D+00 -0.00000000D+00
  0.00000000D+00  0.10586528D-05  0.48401796D-06  0.00000000D+00 -0.42979716D-05
 -0.19650404D-05 -0.00000000D+00  0.58966879D-06  0.26959697D-06  0.00000000D+00
 -0.57517436D-03 -0.26297075D-03  0.00000000D+00  0.00000000D+00  0.00000000D+00
  0.65466302D-08  0.29931321D-08 -0.00000000D+00  0.00000000D+00  0.00000000D+00
  0.00000000D+00 -0.80942956D-07 -0.37007271D-07  0.00000000D+00  0.00000000D+00
 -0.00000000D+00  0.00000000D+00 -0.00000000D+00  0.00000000D+00 -0.00000000D+00
  0.00000000D+00 -0.00000000D+00  0.00000000D+00 -0.00000000D+00  0.00000000D+00
 -0.10586528D-05 -0.48401796D-06  0.00000000D+00  0.42979716D-05  0.19650404D-05
 -0.00000000D+00 -0.58966879D-06 -0.26959697D-06  0.00000000D+00  0.57517436D-03
  0.26297075D-03 -0.00000000D+00 -0.00000000D+00 -0.00000000D+00  0.65466302D-08
  0.29931321D-08  0.00000000D+00 -0.00000000D+00 -0.00000000D+00 -0.00000000D+00
 -0.80942956D-07 -0.37007271D-07 -0.00000000D+00
MO    9     MO 0.0        OCC NO =    0.0000000  ORB. ENERGY =    0.013914
  0.00000000D+00 -0.00000000D+00  0.00000000D+00  0.00000000D+00 -0.00000000D+00
  0.00000000D+00 -0.00000000D+00 -0.00000000D+00 -0.00000000D+00 -0.00000000D+00
  0.00000000D+00  0.48401796D-06 -0.10586528D-05 -0.00000000D+00 -0.19650404D-05
  0.42979716D-05  0.00000000D+00  0.26959697D-06 -0.58966879D-06  0.00000000D+00
 -0.26297075D-03  0.57517436D-03  0.00000000D+00 -0.00000000D+00 -0.00000000D+00
  0.29931321D-08 -0.65466302D-08  0.00000000D+00 -0.00000000D+00 -0.00000000D+00
 -0.00000000D+00 -0.37007271D-07  0.80942956D-07 -0.00000000D+00 -0.00000000D+00
  0.00000000D+00  0.00000000D+00  0.00000000D+00 -0.00000000D+00  0.00000000D+00
 -0.00000000D+00  0.00000000D+00 -0.00000000D+00  0.00000000D+00 -0.00000000D+00
 -0.48401796D-06  0.10586528D-05 -0.00000000D+00  0.19650404D-05 -0.42979716D-05
  0.00000000D+00 -0.26959697D-06  0.58966879D-06 -0.00000000D+00  0.26297075D-03
 -0.57517436D-03  0.00000000D+00  0.00000000D+00  0.00000000D+00  0.29931321D-08
 -0.65466302D-08 -0.00000000D+00  0.00000000D+00  0.00000000D+00  0.00000000D+00
 -0.37007271D-07  0.80942956D-07 -0.00000000D+00
MO   10     MO 0.0        OCC NO =    0.0000000  ORB. ENERGY =    0.017906
 -0.13099110D-03  0.28405933D-01 -0.10134790D-01  0.13621453D-01 -0.10533153D-01
  0.22775248D-02 -0.48470720D-02  0.58424672D-02 -0.24938470D-03  0.35383518D-03
 -0.38606970D-06  0.00000000D+00  0.00000000D+00  0.48792525D-03 -0.00000000D+00
 -0.00000000D+00 -0.36535131D-03 -0.00000000D+00  0.00000000D+00  0.61813943D-03
  0.00000000D+00 -0.00000000D+00 -0.11033921D-08 -0.11083611D-08 -0.11083611D-08
  0.00000000D+00  0.00000000D+00 -0.00000000D+00  0.25361927D-05  0.11402796D-06
  0.11402796D-06 -0.00000000D+00  0.00000000D+00 -0.00000000D+00  0.13099110D-03
 -0.28405933D-01  0.10134790D-01 -0.13621453D-01  0.10533153D-01 -0.22775248D-02
  0.48470720D-02 -0.58424672D-02  0.24938470D-03 -0.35383518D-03 -0.38606970D-06
 -0.00000000D+00 -0.00000000D+00  0.48792525D-03  0.00000000D+00  0.00000000D+00
 -0.36535131D-03 -0.00000000D+00 -0.00000000D+00  0.61813943D-03  0.00000000D+00
  0.00000000D+00  0.11033921D-08  0.11083611D-08  0.11083611D-08  0.00000000D+00
  0.00000000D+00  0.00000000D+00 -0.25361927D-05 -0.11402796D-06 -0.11402796D-06
 -0.00000000D+00  0.00000000D+00 -0.00000000D+00
MO   11     MO 0.0        OCC NO =    0.0000000  ORB. ENERGY =    0.018191
 -0.00000000D+00  0.00000000D+00  0.00000000D+00 -0.00000000D+00  0.00000000D+00
 -0.00000000D+00  0.00000000D+00 -0.00000000D+00  0.00000000D+00 -0.00000000D+00
  0.00000000D+00 -0.10871083D-05  0.14369724D-06  0.00000000D+00  0.12395869D-04
 -0.16385239D-05  0.00000000D+00 -0.20661177D-03  0.27310576D-04 -0.00000000D+00
  0.84740570D-03 -0.11201268D-03  0.00000000D+00  0.00000000D+00  0.00000000D+00
  0.17871802D-07 -0.23623507D-08  0.00000000D+00  0.00000000D+00  0.00000000D+00
  0.00000000D+00 -0.23257656D-06  0.30742676D-07 -0.00000000D+00  0.00000000D+00
 -0.00000000D+00 -0.00000000D+00  0.00000000D+00 -0.00000000D+00  0.00000000D+00
 -0.00000000D+00  0.00000000D+00  0.00000000D+00  0.00000000D+00  0.00000000D+00
 -0.10871083D-05  0.14369724D-06  0.00000000D+00  0.12395869D-04 -0.16385239D-05
  0.00000000D+00 -0.20661177D-03  0.27310576D-04 -0.00000000D+00  0.84740570D-03
 -0.11201268D-03 -0.00000000D+00 -0.00000000D+00 -0.00000000D+00 -0.17871802D-07
  0.23623507D-08 -0.00000000D+00 -0.00000000D+00 -0.00000000D+00 -0.00000000D+00
  0.23257656D-06 -0.30742676D-07  0.00000000D+00
MO   12     MO 0.0        OCC NO =    0.0000000  ORB. ENERGY =    0.018191
 -0.00000000D+00  0.00000000D+00  0.00000000D+00 -0.00000000D+00  0.00000000D+00
 -0.00000000D+00  0.00000000D+00 -0.00000000D+00 -0.00000000D+00  0.00000000D+00
  0.00000000D+00 -0.14369724D-06 -0.10871083D-05  0.00000000D+00  0.16385239D-05
  0.12395869D-04  0.00000000D+00 -0.27310576D-04 -0.20661177D-03 -0.00000000D+00
  0.11201268D-03  0.84740570D-03  0.00000000D+00  0.00000000D+00  0.00000000D+00
  0.23623507D-08  0.17871802D-07 -0.00000000D+00  0.00000000D+00  0.00000000D+00
  0.00000000D+00 -0.30742676D-07 -0.23257656D-06  0.00000000D+00  0.00000000D+00
 -0.00000000D+00 -0.00000000D+00  0.00000000D+00 -0.00000000D+00  0.00000000D+00
  0.00000000D+00 -0.00000000D+00  0.00000000D+00 -0.00000000D+00  0.00000000D+00
 -0.14369724D-06 -0.10871083D-05  0.00000000D+00  0.16385239D-05  0.12395869D-04
  0.00000000D+00 -0.27310576D-04 -0.20661177D-03 -0.00000000D+00  0.11201268D-03
  0.84740570D-03 -0.00000000D+00 -0.00000000D+00 -0.00000000D+00 -0.23623507D-08
 -0.17871802D-07  0.00000000D+00 -0.00000000D+00 -0.00000000D+00 -0.00000000D+00
  0.30742676D-07  0.23257656D-06  0.00000000D+00
MO   13     MO 0.0        OCC NO =    0.0000000  ORB. ENERGY =    0.021670
 -0.22609873D-03 -0.71950606D-04  0.60174734D-03 -0.87486556D-02  0.12925399D-01
  0.10031699D-02  0.70352760D-02 -0.10670195D-01 -0.84960904D-03 -0.22645878D-03
  0.60468666D-05 -0.00000000D+00 -0.00000000D+00 -0.59488103D-05 -0.00000000D+00
  0.00000000D+00  0.39475419D-04  0.00000000D+00 -0.00000000D+00  0.27686925D-03
 -0.00000000D+00  0.00000000D+00  0.32509016D-07  0.28286796D-08  0.28286796D-08
 -0.00000000D+00 -0.00000000D+00 -0.00000000D+00  0.32447587D-07  0.44615301D-07
  0.44615301D-07 -0.00000000D+00  0.00000000D+00 -0.00000000D+00 -0.22609873D-03
 -0.71950606D-04  0.60174734D-03 -0.87486556D-02  0.12925399D-01  0.10031699D-02
  0.70352760D-02 -0.10670195D-01 -0.84960904D-03 -0.22645878D-03 -0.60468666D-05
  0.00000000D+00  0.00000000D+00  0.59488103D-05  0.00000000D+00 -0.00000000D+00
 -0.39475419D-04 -0.00000000D+00  0.00000000D+00 -0.27686925D-03  0.00000000D+00
 -0.00000000D+00  0.32509016D-07  0.28286796D-08  0.28286796D-08  0.00000000D+00
 -0.00000000D+00  0.00000000D+00  0.32447587D-07  0.44615301D-07  0.44615301D-07
 -0.00000000D+00 -0.00000000D+00  0.00000000D+00
MO   14     MO 0.0        OCC NO =    0.0000000  ORB. ENERGY =    0.023620
  0.35786296D-04 -0.90187248D-02  0.62326273D-02 -0.15165376D-01  0.16300817D-01
  0.40746193D-03  0.78901448D-02 -0.11599434D-01 -0.76470736D-03 -0.29872757D-03
  0.57097672D-06 -0.00000000D+00 -0.00000000D+00 -0.15467748D-03  0.00000000D+00
  0.00000000D+00  0.19170543D-03 -0.00000000D+00 -0.00000000D+00  0.27926037D-03
  0.00000000D+00  0.00000000D+00  0.33027778D-08  0.54262074D-08  0.54262074D-08
 -0.00000000D+00 -0.00000000D+00  0.00000000D+00 -0.74236448D-06 -0.95979753D-08
 -0.95979753D-08  0.00000000D+00  0.00000000D+00 -0.00000000D+00 -0.35786296D-04
  0.90187248D-02 -0.62326273D-02  0.15165376D-01 -0.16300817D-01 -0.40746193D-03
 -0.78901448D-02  0.11599434D-01  0.76470736D-03  0.29872757D-03  0.57097672D-06
  0.00000000D+00  0.00000000D+00 -0.15467748D-03 -0.00000000D+00 -0.00000000D+00
  0.19170543D-03  0.00000000D+00  0.00000000D+00  0.27926037D-03 -0.00000000D+00
 -0.00000000D+00 -0.33027778D-08 -0.54262074D-08 -0.54262074D-08 -0.00000000D+00
 -0.00000000D+00 -0.00000000D+00  0.74236448D-06  0.95979753D-08  0.95979753D-08
  0.00000000D+00  0.00000000D+00  0.00000000D+00
MO   15     MO 0.0        OCC NO =    0.0000000  ORB. ENERGY =    0.024482
  0.00000000D+00 -0.00000000D+00  0.00000000D+00 -0.00000000D+00  0.00000000D+00
 -0.00000000D+00  0.00000000D+00  0.00000000D+00 -0.00000000D+00  0.00000000D+00
  0.00000000D+00  0.17814351D-04 -0.38382422D-04 -0.00000000D+00 -0.17825559D-04
  0.38406570D-04  0.00000000D+00  0.14167430D-03 -0.30524845D-03 -0.00000000D+00
 -0.29911773D-03  0.64447271D-03  0.00000000D+00 -0.00000000D+00 -0.00000000D+00
  0.83928840D-07 -0.18083130D-06  0.00000000D+00 -0.00000000D+00 -0.00000000D+00
 -0.00000000D+00 -0.71016227D-07  0.15301006D-06 -0.00000000D+00 -0.00000000D+00
  0.00000000D+00 -0.00000000D+00  0.00000000D+00 -0.00000000D+00 -0.00000000D+00
  0.00000000D+00  0.00000000D+00 -0.00000000D+00  0.00000000D+00 -0.00000000D+00
 -0.17814351D-04  0.38382422D-04 -0.00000000D+00  0.17825559D-04 -0.38406570D-04
  0.00000000D+00 -0.14167430D-03  0.30524845D-03  0.00000000D+00  0.29911773D-03
 -0.64447271D-03  0.00000000D+00  0.00000000D+00  0.00000000D+00  0.83928840D-07
 -0.18083130D-06 -0.00000000D+00  0.00000000D+00  0.00000000D+00  0.00000000D+00
 -0.71016227D-07  0.15301006D-06  0.00000000D+00
MO   16     MO 0.0        OCC NO =    0.0000000  ORB. ENERGY =    0.024482
 -0.00000000D+00  0.00000000D+00  0.00000000D+00 -0.00000000D+00  0.00000000D+00
  0.00000000D+00  0.00000000D+00 -0.00000000D+00 -0.00000000D+00 -0.00000000D+00
  0.00000000D+00  0.38382422D-04  0.17814351D-04  0.00000000D+00 -0.38406570D-04
 -0.17825559D-04 -0.00000000D+00  0.30524845D-03  0.14167430D-03  0.00000000D+00
 -0.64447271D-03 -0.29911773D-03  0.00000000D+00  0.00000000D+00  0.00000000D+00
  0.18083130D-06  0.83928840D-07 -0.00000000D+00  0.00000000D+00  0.00000000D+00
  0.00000000D+00 -0.15301006D-06 -0.71016227D-07  0.00000000D+00  0.00000000D+00
 -0.00000000D+00  0.00000000D+00  0.00000000D+00 -0.00000000D+00 -0.00000000D+00
 -0.00000000D+00  0.00000000D+00  0.00000000D+00  0.00000000D+00 -0.00000000D+00
 -0.38382422D-04 -0.17814351D-04  0.00000000D+00  0.38406570D-04  0.17825559D-04
 -0.00000000D+00 -0.30524845D-03 -0.14167430D-03  0.00000000D+00  0.64447271D-03
  0.29911773D-03  0.00000000D+00 -0.00000000D+00 -0.00000000D+00  0.18083130D-06
  0.83928840D-07  0.00000000D+00 -0.00000000D+00 -0.00000000D+00 -0.00000000D+00
 -0.15301006D-06 -0.71016227D-07 -0.00000000D+00
MO   17     MO 0.0        OCC NO =    0.0000000  ORB. ENERGY =    0.030580
 -0.14030669D-02  0.39324683D-03 -0.17088768D-02  0.70032045D-02 -0.69941918D-02
 -0.32533982D-04 -0.29012973D-02  0.41657735D-02  0.23075320D-03  0.12326672D-03
  0.39101426D-04  0.00000000D+00  0.00000000D+00 -0.52100376D-04 -0.00000000D+00
 -0.00000000D+00  0.25425401D-03  0.00000000D+00  0.00000000D+00 -0.64947152D-03
  0.00000000D+00  0.00000000D+00  0.21495015D-06  0.15189795D-07  0.15189795D-07
  0.00000000D+00  0.00000000D+00 -0.00000000D+00 -0.17905918D-06  0.21916059D-06
  0.21916059D-06 -0.00000000D+00 -0.00000000D+00  0.00000000D+00 -0.14030669D-02
  0.39324683D-03 -0.17088768D-02  0.70032045D-02 -0.69941918D-02 -0.32533982D-04
 -0.29012973D-02  0.41657735D-02  0.23075320D-03  0.12326672D-03 -0.39101426D-04
 -0.00000000D+00 -0.00000000D+00  0.52100376D-04  0.00000000D+00  0.00000000D+00
 -0.25425401D-03 -0.00000000D+00 -0.00000000D+00  0.64947152D-03 -0.00000000D+00
  0.00000000D+00  0.21495015D-06  0.15189795D-07  0.15189795D-07  0.00000000D+00
  0.00000000D+00  0.00000000D+00 -0.17905918D-06  0.21916059D-06  0.21916059D-06
 -0.00000000D+00 -0.00000000D+00 -0.00000000D+00
MO   18     MO 0.0        OCC NO =    0.0000000  ORB. ENERGY =    0.030987
  0.37446851D-02  0.41677105D-02 -0.18414995D-01  0.19588525D-01 -0.12284658D-01
 -0.32702598D-02 -0.39843199D-02  0.74391881D-02  0.12632534D-02 -0.53508748D-04
 -0.42978864D-04 -0.00000000D+00  0.00000000D+00  0.82024406D-04  0.00000000D+00
 -0.00000000D+00 -0.82672623D-04 -0.00000000D+00  0.00000000D+00  0.21167816D-03
  0.00000000D+00 -0.00000000D+00 -0.31581417D-06 -0.91829557D-07 -0.91829557D-07
 -0.00000000D+00  0.00000000D+00  0.00000000D+00 -0.10335817D-05 -0.19322698D-05
 -0.19322698D-05  0.00000000D+00 -0.00000000D+00 -0.00000000D+00  0.37446851D-02
  0.41677105D-02 -0.18414995D-01  0.19588525D-01 -0.12284658D-01 -0.32702598D-02
 -0.39843199D-02  0.74391881D-02  0.12632534D-02 -0.53508748D-04  0.42978864D-04
  0.00000000D+00 -0.00000000D+00 -0.82024406D-04 -0.00000000D+00  0.00000000D+00
  0.82672623D-04  0.00000000D+00 -0.00000000D+00 -0.21167816D-03 -0.00000000D+00
  0.00000000D+00 -0.31581417D-06 -0.91829557D-07 -0.91829557D-07 -0.00000000D+00
  0.00000000D+00 -0.00000000D+00 -0.10335817D-05 -0.19322698D-05 -0.19322698D-05
  0.00000000D+00 -0.00000000D+00  0.00000000D+00
MO   19     MO 0.0        OCC NO =    0.0000000  ORB. ENERGY =    0.031777
 -0.17239366D-03  0.27708580D-01  0.11642717D-02 -0.69070711D-02  0.67015867D-02
 -0.25078919D-03  0.26580681D-02 -0.36700130D-02 -0.13278973D-03 -0.13149793D-03
  0.27006707D-05  0.00000000D+00  0.00000000D+00  0.50459209D-03 -0.00000000D+00
 -0.00000000D+00 -0.45119042D-03  0.00000000D+00  0.00000000D+00  0.58180220D-03
 -0.00000000D+00  0.00000000D+00  0.31584402D-07  0.24283141D-07  0.24283141D-07
  0.00000000D+00  0.00000000D+00  0.00000000D+00  0.30850377D-05  0.59384986D-06
  0.59384986D-06 -0.00000000D+00  0.00000000D+00 -0.00000000D+00  0.17239366D-03
 -0.27708580D-01 -0.11642717D-02  0.69070711D-02 -0.67015867D-02  0.25078919D-03
 -0.26580681D-02  0.36700130D-02  0.13278973D-03  0.13149793D-03  0.27006707D-05
 -0.00000000D+00 -0.00000000D+00  0.50459209D-03  0.00000000D+00 -0.00000000D+00
 -0.45119042D-03 -0.00000000D+00  0.00000000D+00  0.58180220D-03 -0.00000000D+00
 -0.00000000D+00 -0.31584402D-07 -0.24283141D-07 -0.24283141D-07  0.00000000D+00
  0.00000000D+00 -0.00000000D+00 -0.30850377D-05 -0.59384986D-06 -0.59384986D-06
 -0.00000000D+00  0.00000000D+00  0.00000000D+00
MO   20     MO 0.0        OCC NO =    0.0000000  ORB. ENERGY =    0.039381
 -0.60887790D-03 -0.17999232D-01  0.16725715D-01 -0.11939276D-01  0.37642080D-02
  0.61416051D-02  0.33355800D-03 -0.34889406D-02 -0.16163946D-02  0.34915702D-03
  0.46759791D-04 -0.00000000D+00 -0.00000000D+00 -0.29330582D-03  0.00000000D+00
  0.00000000D+00 -0.94276598D-04 -0.00000000D+00 -0.00000000D+00  0.10870177D-03
  0.00000000D+00  0.00000000D+00  0.62499812D-06  0.55311311D-06  0.55311311D-06
 -0.00000000D+00 -0.00000000D+00  0.00000000D+00  0.24006423D-05  0.38525327D-05
  0.38525327D-05  0.00000000D+00  0.00000000D+00  0.00000000D+00  0.60887790D-03
  0.17999232D-01 -0.16725715D-01  0.11939276D-01 -0.37642080D-02 -0.61416051D-02
 -0.33355800D-03  0.34889406D-02  0.16163946D-02 -0.34915702D-03  0.46759791D-04
  0.00000000D+00  0.00000000D+00 -0.29330582D-03 -0.00000000D+00 -0.00000000D+00
 -0.94276598D-04  0.00000000D+00  0.00000000D+00  0.10870177D-03 -0.00000000D+00
 -0.00000000D+00 -0.62499812D-06 -0.55311311D-06 -0.55311311D-06 -0.00000000D+00
 -0.00000000D+00 -0.00000000D+00 -0.24006423D-05 -0.38525327D-05 -0.38525327D-05
  0.00000000D+00  0.00000000D+00  0.00000000D+00
MO   21     MO 0.0        OCC NO =    0.0000000  ORB. ENERGY =    0.041865
  0.00000000D+00 -0.00000000D+00 -0.00000000D+00 -0.00000000D+00 -0.00000000D+00
  0.00000000D+00 -0.00000000D+00 -0.00000000D+00 -0.00000000D+00  0.00000000D+00
 -0.00000000D+00  0.00000000D+00 -0.00000000D+00  0.00000000D+00 -0.00000000D+00
  0.00000000D+00 -0.00000000D+00  0.00000000D+00 -0.00000000D+00  0.00000000D+00
 -0.00000000D+00  0.00000000D+00 -0.00000000D+00 -0.50499386D-07  0.50499386D-07
  0.00000000D+00 -0.00000000D+00  0.22703133D-07 -0.00000000D+00  0.65640122D-06
 -0.65640122D-06 -0.00000000D+00  0.00000000D+00 -0.29509991D-06  0.00000000D+00
 -0.00000000D+00 -0.00000000D+00  0.00000000D+00 -0.00000000D+00 -0.00000000D+00
 -0.00000000D+00  0.00000000D+00 -0.00000000D+00  0.00000000D+00  0.00000000D+00
 -0.00000000D+00  0.00000000D+00  0.00000000D+00  0.00000000D+00 -0.00000000D+00
  0.00000000D+00  0.00000000D+00 -0.00000000D+00 -0.00000000D+00 -0.00000000D+00
  0.00000000D+00 -0.00000000D+00 -0.50499386D-07  0.50499386D-07  0.00000000D+00
 -0.00000000D+00  0.22703133D-07 -0.00000000D+00  0.65640122D-06 -0.65640122D-06
 -0.00000000D+00  0.00000000D+00 -0.29509991D-06
MO   22     MO 0.0        OCC NO =    0.0000000  ORB. ENERGY =    0.041865
  0.00000000D+00 -0.00000000D+00  0.00000000D+00 -0.00000000D+00  0.00000000D+00
  0.00000000D+00 -0.00000000D+00 -0.00000000D+00 -0.00000000D+00  0.00000000D+00
 -0.00000000D+00 -0.00000000D+00  0.00000000D+00 -0.00000000D+00  0.00000000D+00
 -0.00000000D+00  0.00000000D+00 -0.00000000D+00  0.00000000D+00  0.00000000D+00
  0.00000000D+00 -0.00000000D+00 -0.00000000D+00 -0.11351567D-07  0.11351567D-07
 -0.00000000D+00  0.00000000D+00 -0.10099878D-06 -0.00000000D+00  0.14754996D-06
 -0.14754996D-06  0.00000000D+00 -0.00000000D+00  0.13128025D-05 -0.00000000D+00
  0.00000000D+00 -0.00000000D+00  0.00000000D+00 -0.00000000D+00 -0.00000000D+00
  0.00000000D+00  0.00000000D+00  0.00000000D+00 -0.00000000D+00 -0.00000000D+00
  0.00000000D+00 -0.00000000D+00 -0.00000000D+00  0.00000000D+00 -0.00000000D+00
  0.00000000D+00 -0.00000000D+00  0.00000000D+00  0.00000000D+00  0.00000000D+00
 -0.00000000D+00  0.00000000D+00 -0.11351567D-07  0.11351567D-07 -0.00000000D+00
 -0.00000000D+00 -0.10099878D-06  0.00000000D+00  0.14754996D-06 -0.14754996D-06
 -0.00000000D+00  0.00000000D+00  0.13128025D-05
MO   23     MO 0.0        OCC NO =    0.0000000  ORB. ENERGY =    0.042622
  0.58889906D-03 -0.79361155D-01  0.10978785D-01 -0.88312630D-02  0.11662711D-03
  0.10365668D-01 -0.12506435D-02 -0.31982077D-02 -0.24987725D-02  0.64203391D-03
 -0.13855578D-04 -0.00000000D+00 -0.00000000D+00 -0.11882425D-02  0.00000000D+00
  0.00000000D+00 -0.44605880D-04 -0.00000000D+00 -0.00000000D+00  0.96479028D-04
  0.00000000D+00  0.00000000D+00 -0.27038407D-06 -0.32218897D-06 -0.32218897D-06
 -0.00000000D+00 -0.00000000D+00  0.00000000D+00 -0.61304844D-05  0.36899171D-06
  0.36899171D-06  0.00000000D+00  0.00000000D+00 -0.00000000D+00 -0.58889906D-03
  0.79361155D-01 -0.10978785D-01  0.88312630D-02 -0.11662711D-03 -0.10365668D-01
  0.12506435D-02  0.31982077D-02  0.24987725D-02 -0.64203391D-03 -0.13855578D-04
  0.00000000D+00  0.00000000D+00 -0.11882425D-02 -0.00000000D+00 -0.00000000D+00
 -0.44605880D-04  0.00000000D+00  0.00000000D+00  0.96479028D-04 -0.00000000D+00
 -0.00000000D+00  0.27038407D-06  0.32218897D-06  0.32218897D-06 -0.00000000D+00
 -0.00000000D+00  0.00000000D+00  0.61304844D-05 -0.36899171D-06 -0.36899171D-06
  0.00000000D+00  0.00000000D+00 -0.00000000D+00
MO   24     MO 0.0        OCC NO =    0.0000000  ORB. ENERGY =    0.042861
 -0.77949072D-02  0.33159264D-02  0.17409116D-02  0.25930338D-03  0.44717187D-03
 -0.18335416D-02  0.34116323D-03  0.39668270D-03  0.43448396D-03 -0.11927548D-03
  0.13398143D-03  0.00000000D+00 -0.00000000D+00 -0.48637924D-04 -0.00000000D+00
  0.00000000D+00  0.46705862D-04  0.00000000D+00 -0.00000000D+00 -0.39161880D-04
 -0.00000000D+00  0.00000000D+00  0.93744131D-06  0.18959275D-06  0.18959275D-06
  0.00000000D+00 -0.00000000D+00 -0.00000000D+00  0.79663566D-06  0.13979555D-05
  0.13979555D-05 -0.00000000D+00  0.00000000D+00  0.00000000D+00 -0.77949072D-02
  0.33159264D-02  0.17409116D-02  0.25930338D-03  0.44717187D-03 -0.18335416D-02
  0.34116323D-03  0.39668270D-03  0.43448396D-03 -0.11927548D-03 -0.13398143D-03
 -0.00000000D+00  0.00000000D+00  0.48637924D-04  0.00000000D+00 -0.00000000D+00