[Molden Format]
[Title]
 Molden2AIM, Version 3.1.0 (02/25/2015)           Time: Thu Oct 17 19:55:50 2024

[Atoms] AU
E+       1       4     0.00000000     0.00000000     0.00000000
E+       2       4    51.20000000     0.00000000     0.00000000
[GTO]
    1 0
 S   1 1.0
    0.1000000000D-03      0.1000000000D+01
 S   1 1.0
    0.3000000000D-03      0.1000000000D+01
 S   1 1.0
    0.9000000000D-03      0.1000000000D+01
 S   1 1.0
    0.2700000000D-02      0.1000000000D+01
 S   1 1.0
    0.8100000000D-02      0.1000000000D+01
 S   1 1.0
    0.2430000000D-01      0.1000000000D+01
 S   1 1.0
    0.7290000000D-01      0.1000000000D+01
 S   1 1.0
    0.2187000000D+00      0.1000000000D+01
 S   1 1.0
    0.6561000000D+00      0.1000000000D+01
 S   1 1.0
    0.1968300000D+01      0.1000000000D+01
 P   1 1.0
    0.1000000000D-03      0.1000000000D+01
 P   1 1.0
    0.3000000000D-03      0.1000000000D+01
 P   1 1.0
    0.9000000000D-03      0.1000000000D+01
 P   1 1.0
    0.2700000000D-02      0.1000000000D+01
 D   1 1.0
    0.1000000000D-03      0.1000000000D+01
 D   1 1.0
    0.3000000000D-03      0.1000000000D+01

    2 0
 S   1 1.0
    0.1000000000D-03      0.1000000000D+01
 S   1 1.0
    0.3000000000D-03      0.1000000000D+01
 S   1 1.0
    0.9000000000D-03      0.1000000000D+01
 S   1 1.0
    0.2700000000D-02      0.1000000000D+01
 S   1 1.0
    0.8100000000D-02      0.1000000000D+01
 S   1 1.0
    0.2430000000D-01      0.1000000000D+01
 S   1 1.0
    0.7290000000D-01      0.1000000000D+01
 S   1 1.0
    0.2187000000D+00      0.1000000000D+01
 S   1 1.0
    0.6561000000D+00      0.1000000000D+01
 S   1 1.0
    0.1968300000D+01      0.1000000000D+01
 P   1 1.0
    0.1000000000D-03      0.1000000000D+01
 P   1 1.0
    0.3000000000D-03      0.1000000000D+01
 P   1 1.0
    0.9000000000D-03      0.1000000000D+01
 P   1 1.0
    0.2700000000D-02      0.1000000000D+01
 D   1 1.0
    0.1000000000D-03      0.1000000000D+01
 D   1 1.0
    0.3000000000D-03      0.1000000000D+01


[MO]
 Ene=          0.00098212
 Spin= Alpha
 Occup=        1.00000000
    1        0.1187565100
    2        0.1045089500
    3       -0.2313193900
    4       -0.1991386600
    5       -0.1921906900
    6       -0.1642277700
    7       -0.0974765800
    8        0.0796173800
    9        0.0055745800
   10       -0.0000963900
   11       -0.0839584700
   12       -0.0000000000
   13        0.0000000000
   14        0.0190123300
   15       -0.0000000000
   16       -0.0000000000
   17       -0.0445588400
   18       -0.0000000000
   19        0.0000000000
   20       -0.1978659200
   21        0.0000000000
   22       -0.0000000000
   23       -0.0462342000
   24       -0.0113058200
   25       -0.0113058200
   26       -0.0000000000
   27        0.0000000000
   28       -0.0000000000
   29       -0.0459514500
   30       -0.0396411400
   31       -0.0396411400
   32       -0.0000000000
   33       -0.0000000000
   34        0.0000000000
   35        0.1187565100
   36        0.1045089500
   37       -0.2313193900
   38       -0.1991386600
   39       -0.1921906900
   40       -0.1642277700
   41       -0.0974765800
   42        0.0796173800
   43        0.0055745800
   44       -0.0000963900
   45        0.0839584700
   46        0.0000000000
   47       -0.0000000000
   48       -0.0190123300
   49        0.0000000000
   50        0.0000000000
   51        0.0445588400
   52        0.0000000000
   53       -0.0000000000
   54        0.1978659200
   55       -0.0000000000
   56        0.0000000000
   57       -0.0462342000
   58       -0.0113058200
   59       -0.0113058200
   60       -0.0000000000
   61        0.0000000000
   62        0.0000000000
   63       -0.0459514500
   64       -0.0396411400
   65       -0.0396411400
   66       -0.0000000000
   67        0.0000000000
   68       -0.0000000000
 Ene=          0.00154388
 Spin= Alpha
 Occup=        0.00000000
    1        0.0215956900
    2       -1.3784916200
    3        0.0055906000
    4       -0.3471464800
    5       -0.1974464600
    6       -0.2016004500
    7       -0.1087665700
    8        0.0907915200
    9        0.0067158100
   10       -0.0001608100
   11       -0.0237932400
   12        0.0000000000
   13        0.0000000000
   14       -0.7514895100
   15       -0.0000000000
   16       -0.0000000000
   17        0.1144207000
   18        0.0000000000
   19        0.0000000000
   20       -0.2332115800
   21       -0.0000000000
   22       -0.0000000000
   23       -0.0205142500
   24       -0.0181297800
   25       -0.0181297800
   26        0.0000000000
   27        0.0000000000
   28        0.0000000000
   29       -0.2452258200
   30       -0.0487299200
   31       -0.0487299200
   32       -0.0000000000
   33       -0.0000000000
   34       -0.0000000000
   35       -0.0215956900
   36        1.3784916200
   37       -0.0055906000
   38        0.3471464800
   39        0.1974464600
   40        0.2016004500
   41        0.1087665700
   42       -0.0907915200
   43       -0.0067158100
   44        0.0001608100
   45       -0.0237932400
   46       -0.0000000000
   47       -0.0000000000
   48       -0.7514895100
   49        0.0000000000
   50        0.0000000000
   51        0.1144207000
   52       -0.0000000000
   53       -0.0000000000
   54       -0.2332115800
   55        0.0000000000
   56        0.0000000000
   57        0.0205142500
   58        0.0181297800
   59        0.0181297800
   60        0.0000000000
   61        0.0000000000
   62       -0.0000000000
   63        0.2452258200
   64        0.0487299200
   65        0.0487299200
   66        0.0000000000
   67        0.0000000000
   68       -0.0000000000
 Ene=          0.00564708
 Spin= Alpha
 Occup=        0.00000000
    1       -0.6127477400
    2       -0.1628307000
    3        0.9291212100
    4       -0.6101441500
    5       -0.1002446600
    6       -0.1627789900
    7       -0.0641838100
    8        0.0580462000
    9        0.0050986500
   10       -0.0002146900
   11        0.8201385600
   12        0.0000000000
   13       -0.0000000000
   14       -0.2890648200
   15       -0.0000000000
   16        0.0000000000
   17        0.5033599900
   18        0.0000000000
   19        0.0000000000
   20       -0.1172441300
   21       -0.0000000000
   22       -0.0000000000
   23        0.3928719500
   24        0.0285915400
   25        0.0285915400
   26        0.0000000000
   27       -0.0000000000
   28        0.0000000000
   29        0.0199120600
   30        0.0930250200
   31        0.0930250200
   32       -0.0000000000
   33        0.0000000000
   34       -0.0000000000
   35       -0.6127477400
   36       -0.1628307000
   37        0.9291212100
   38       -0.6101441500
   39       -0.1002446600
   40       -0.1627789900
   41       -0.0641838100
   42        0.0580462000
   43        0.0050986500
   44       -0.0002146900
   45       -0.8201385600
   46       -0.0000000000
   47        0.0000000000
   48        0.2890648200
   49        0.0000000000
   50       -0.0000000000
   51       -0.5033599900
   52       -0.0000000000
   53       -0.0000000000
   54        0.1172441300
   55        0.0000000000
   56        0.0000000000
   57        0.3928719500
   58        0.0285915400
   59        0.0285915400
   60        0.0000000000
   61       -0.0000000000
   62       -0.0000000000
   63        0.0199120600
   64        0.0930250200
   65        0.0930250200
   66       -0.0000000000
   67        0.0000000000
   68        0.0000000000
 Ene=          0.01187120
 Spin= Alpha
 Occup=        0.00000000
    1        0.0088805600
    2       -3.6363113900
    3        0.9119413000
    4        0.3169423700
    5       -0.6016620900
    6       -0.0743506600
    7       -0.1009660000
    8        0.0718873100
    9        0.0033403400
   10        0.0001659300
   11        0.0963260300
   12        0.0000000000
   13        0.0000000000
   14       -1.7753027600
   15       -0.0000000000
   16       -0.0000000000
   17        0.2700940300
   18        0.0000000000
   19        0.0000000000
   20        0.4497567800
   21        0.0000000000
   22       -0.0000000000
   23        0.0843700100
   24        0.0659176500
   25        0.0659176500
   26        0.0000000000
   27        0.0000000000
   28       -0.0000000000
   29       -0.3408378300
   30        0.1242544100
   31        0.1242544100
   32       -0.0000000000
   33       -0.0000000000
   34        0.0000000000
   35       -0.0088805600
   36        3.6363113900
   37       -0.9119413000
   38       -0.3169423700
   39        0.6016620900
   40        0.0743506600
   41        0.1009660000
   42       -0.0718873100
   43       -0.0033403400
   44       -0.0001659300
   45        0.0963260300
   46       -0.0000000000
   47       -0.0000000000
   48       -1.7753027600
   49        0.0000000000
   50        0.0000000000
   51        0.2700940300
   52       -0.0000000000
   53       -0.0000000000
   54        0.4497567800
   55        0.0000000000
   56        0.0000000000
   57       -0.0843700100
   58       -0.0659176500
   59       -0.0659176500
   60        0.0000000000
   61        0.0000000000
   62        0.0000000000
   63        0.3408378300
   64       -0.1242544100
   65       -0.1242544100
   66       -0.0000000000
   67       -0.0000000000
   68       -0.0000000000
 Ene=          0.01277740
 Spin= Alpha
 Occup=        0.00000000
    1        0.0000000000
    2       -0.0000000000
    3       -0.0000000000
    4        0.0000000000
    5        0.0000000000
    6        0.0000000000
    7        0.0000000000
    8       -0.0000000000
    9        0.0000000000
   10       -0.0000000000
   11       -0.0000000000
   12        0.0031547300
   13        0.0508144900
   14       -0.0000000000
   15       -0.0083474300
   16       -0.1344554500
   17        0.0000000000
   18        0.0285411700
   19        0.4597242100
   20       -0.0000000000
   21        0.0179572400
   22        0.2892446200
   23       -0.0000000000
   24       -0.0000000000
   25       -0.0000000000
   26       -0.0032669800
   27       -0.0526225900
   28       -0.0000000000
   29       -0.0000000000
   30       -0.0000000000
   31       -0.0000000000
   32        0.0056431100
   33        0.0908959200
   34        0.0000000000
   35        0.0000000000
   36        0.0000000000
   37        0.0000000000
   38       -0.0000000000
   39        0.0000000000
   40       -0.0000000000
   41       -0.0000000000
   42        0.0000000000
   43       -0.0000000000
   44        0.0000000000
   45        0.0000000000
   46        0.0031547300
   47        0.0508144900
   48       -0.0000000000
   49       -0.0083474300
   50       -0.1344554500
   51        0.0000000000
   52        0.0285411700
   53        0.4597242100
   54       -0.0000000000
   55        0.0179572400
   56        0.2892446200
   57       -0.0000000000
   58        0.0000000000
   59        0.0000000000
   60        0.0032669800
   61        0.0526225900
   62        0.0000000000
   63        0.0000000000
   64        0.0000000000
   65        0.0000000000
   66       -0.0056431100
   67       -0.0908959200
   68        0.0000000000
 Ene=          0.01277740
 Spin= Alpha
 Occup=        0.00000000
    1       -0.0000000000
    2        0.0000000000
    3       -0.0000000000
    4        0.0000000000
    5       -0.0000000000
    6       -0.0000000000
    7       -0.0000000000
    8        0.0000000000
    9        0.0000000000
   10       -0.0000000000
   11        0.0000000000
   12       -0.0508144900
   13        0.0031547300
   14        0.0000000000
   15        0.1344554500
   16       -0.0083474300
   17       -0.0000000000
   18       -0.4597242100
   19        0.0285411700
   20        0.0000000000
   21       -0.2892446200
   22        0.0179572400
   23        0.0000000000
   24        0.0000000000
   25        0.0000000000
   26        0.0526225900
   27       -0.0032669800
   28       -0.0000000000
   29        0.0000000000
   30        0.0000000000
   31        0.0000000000
   32       -0.0908959200
   33        0.0056431100
   34        0.0000000000
   35        0.0000000000
   36       -0.0000000000
   37        0.0000000000
   38       -0.0000000000
   39        0.0000000000
   40       -0.0000000000
   41        0.0000000000
   42       -0.0000000000
   43        0.0000000000
   44       -0.0000000000
   45       -0.0000000000
   46       -0.0508144900
   47        0.0031547300
   48        0.0000000000
   49        0.1344554500
   50       -0.0083474300
   51       -0.0000000000
   52       -0.4597242100
   53        0.0285411700
   54        0.0000000000
   55       -0.2892446200
   56        0.0179572400
   57        0.0000000000
   58       -0.0000000000
   59       -0.0000000000
   60       -0.0526225900
   61        0.0032669800
   62        0.0000000000
   63       -0.0000000000
   64       -0.0000000000
   65       -0.0000000000
   66        0.0908959200
   67       -0.0056431100
   68       -0.0000000000
 Ene=          0.01341550
 Spin= Alpha
 Occup=        0.00000000
    1       -0.1442541700
    2       -0.3391349400
    3       -0.2896745300
    4        1.3338104600
    5       -0.8391476000
    6        0.0312528700
    7       -0.1060322900
    8        0.0641607500
    9        0.0007727500
   10        0.0004642600
   11       -0.6626915100
   12       -0.0000000000
   13       -0.0000000000
   14        0.1585219800
   15        0.0000000000
   16        0.0000000000
   17       -0.6227325800
   18       -0.0000000000
   19       -0.0000000000
   20        0.8192340300
   21       -0.0000000000
   22        0.0000000000
   23       -0.2222923800
   24        0.0696084700
   25        0.0696084700
   26       -0.0000000000
   27       -0.0000000000
   28       -0.0000000000
   29        0.2100272200
   30        0.2250523200
   31        0.2250523200
   32       -0.0000000000
   33        0.0000000000
   34        0.0000000000
   35       -0.1442541700
   36       -0.3391349400
   37       -0.2896745300
   38        1.3338104600
   39       -0.8391476000
   40        0.0312528700
   41       -0.1060322900
   42        0.0641607500
   43        0.0007727500
   44        0.0004642600
   45        0.6626915100
   46        0.0000000000
   47        0.0000000000
   48       -0.1585219800
   49       -0.0000000000
   50       -0.0000000000
   51        0.6227325800
   52       -0.0000000000
   53        0.0000000000
   54       -0.8192340300
   55       -0.0000000000
   56        0.0000000000
   57       -0.2222923800
   58        0.0696084700
   59        0.0696084700
   60       -0.0000000000
   61       -0.0000000000
   62       -0.0000000000
   63        0.2100272200
   64        0.2250523200
   65        0.2250523200
   66        0.0000000000
   67        0.0000000000
   68        0.0000000000
 Ene=          0.01505490
 Spin= Alpha
 Occup=        0.00000000
    1        0.0000000000
    2        0.0000000000
    3       -0.0000000000
    4        0.0000000000
    5       -0.0000000000
    6       -0.0000000000
    7       -0.0000000000
    8       -0.0000000000
    9        0.0000000000
   10       -0.0000000000
   11       -0.0000000000
   12       -0.0069088100
   13       -0.0339531000
   14        0.0000000000
   15        0.0134799700
   16        0.0662467900
   17       -0.0000000000
   18        0.0028945300
   19        0.0142250600
   20        0.0000000000
   21        0.1413060700
   22        0.6944432200
   23       -0.0000000000
   24        0.0000000000
   25        0.0000000000
   26       -0.0029727600
   27       -0.0146094900
   28       -0.0000000000
   29        0.0000000000
   30        0.0000000000
   31        0.0000000000
   32        0.0088173200
   33        0.0433324000
   34       -0.0000000000
   35        0.0000000000
   36       -0.0000000000
   37        0.0000000000
   38       -0.0000000000
   39        0.0000000000
   40       -0.0000000000
   41        0.0000000000
   42       -0.0000000000
   43        0.0000000000
   44       -0.0000000000
   45        0.0000000000
   46        0.0069088100
   47        0.0339531000
   48        0.0000000000
   49       -0.0134799700
   50       -0.0662467900
   51       -0.0000000000
   52       -0.0028945300
   53       -0.0142250600
   54        0.0000000000
   55       -0.1413060700
   56       -0.6944432200
   57       -0.0000000000
   58       -0.0000000000
   59       -0.0000000000
   60       -0.0029727600
   61       -0.0146094900
   62       -0.0000000000
   63       -0.0000000000
   64       -0.0000000000
   65       -0.0000000000
   66        0.0088173200
   67        0.0433324000
   68        0.0000000000
 Ene=          0.01505490
 Spin= Alpha
 Occup=        0.00000000
    1       -0.0000000000
    2        0.0000000000
    3       -0.0000000000
    4        0.0000000000
    5       -0.0000000000
    6        0.0000000000
    7       -0.0000000000
    8        0.0000000000
    9        0.0000000000
   10       -0.0000000000
   11        0.0000000000
   12        0.0339531000
   13       -0.0069088100
   14        0.0000000000
   15       -0.0662467900
   16        0.0134799700
   17       -0.0000000000
   18       -0.0142250600
   19        0.0028945300
   20        0.0000000000
   21       -0.6944432200
   22        0.1413060700
   23        0.0000000000
   24        0.0000000000
   25        0.0000000000
   26        0.0146094900
   27       -0.0029727600
   28        0.0000000000
   29        0.0000000000
   30        0.0000000000
   31        0.0000000000
   32       -0.0433324000
   33        0.0088173200
   34       -0.0000000000
   35        0.0000000000
   36       -0.0000000000
   37        0.0000000000
   38       -0.0000000000
   39        0.0000000000
   40       -0.0000000000
   41        0.0000000000
   42       -0.0000000000
   43        0.0000000000
   44       -0.0000000000
   45       -0.0000000000
   46       -0.0339531000
   47        0.0069088100
   48        0.0000000000
   49        0.0662467900
   50       -0.0134799700
   51       -0.0000000000
   52        0.0142250600
   53       -0.0028945300
   54        0.0000000000
   55        0.6944432200
   56       -0.1413060700
   57        0.0000000000
   58       -0.0000000000
   59       -0.0000000000
   60        0.0146094900
   61       -0.0029727600
   62       -0.0000000000
   63       -0.0000000000
   64       -0.0000000000
   65       -0.0000000000
   66       -0.0433324000
   67        0.0088173200
   68        0.0000000000
 Ene=          0.01847300
 Spin= Alpha
 Occup=        0.00000000
    1        0.1461143700
    2      -14.9101701400
    3        2.6931628900
    4       -1.6682212300
    5        0.5761012600
    6       -0.0563396800
    7        0.0519139600
    8       -0.0273978400
    9        0.0005303300
   10       -0.0003215800
   11        0.0364701800
   12        0.0000000000
   13       -0.0000000000
   14       -7.7574199600
   15       -0.0000000000
   16        0.0000000000
   17        1.6339569900
   18        0.0000000000
   19        0.0000000000
   20       -0.6886251000
   21       -0.0000000000
   22       -0.0000000000
   23        0.0185354700
   24        0.0203492700
   25        0.0203492700
   26        0.0000000000
   27       -0.0000000000
   28       -0.0000000000
   29       -2.0710883800
   30       -0.0814289800
   31       -0.0814289800
   32       -0.0000000000
   33        0.0000000000
   34       -0.0000000000
   35       -0.1461143700
   36       14.9101701400
   37       -2.6931628900
   38        1.6682212300
   39       -0.5761012600
   40        0.0563396800
   41       -0.0519139600
   42        0.0273978400
   43       -0.0005303300
   44        0.0003215800
   45        0.0364701800
   46       -0.0000000000
   47        0.0000000000
   48       -7.7574199600
   49        0.0000000000
   50       -0.0000000000
   51        1.6339569900
   52        0.0000000000
   53        0.0000000000
   54       -0.6886251000
   55       -0.0000000000
   56       -0.0000000000
   57       -0.0185354700
   58       -0.0203492700
   59       -0.0203492700
   60        0.0000000000
   61       -0.0000000000
   62       -0.0000000000
   63        2.0710883800
   64        0.0814289800
   65        0.0814289800
   66       -0.0000000000
   67        0.0000000000
   68        0.0000000000
 Ene=          0.01911190
 Spin= Alpha
 Occup=        0.00000000
    1       -0.0000000000
    2        0.0000000000
    3        0.0000000000
    4       -0.0000000000
    5        0.0000000000
    6       -0.0000000000
    7        0.0000000000
    8       -0.0000000000
    9        0.0000000000
   10        0.0000000000
   11       -0.0000000000
   12       -0.0092170100
   13        0.0751016100
   14        0.0000000000
   15        0.0260886100
   16       -0.2125740500
   17        0.0000000000
   18       -0.1115353300
   19        0.9088073100
   20       -0.0000000000
   21        0.1196574100
   22       -0.9749872900
   23        0.0000000000
   24        0.0000000000
   25        0.0000000000
   26        0.0083453100
   27       -0.0679989000
   28        0.0000000000
   29        0.0000000000
   30        0.0000000000
   31        0.0000000000
   32       -0.0150765300
   33        0.1228459500
   34       -0.0000000000
   35       -0.0000000000
   36       -0.0000000000
   37       -0.0000000000
   38        0.0000000000
   39       -0.0000000000
   40       -0.0000000000
   41        0.0000000000
   42        0.0000000000
   43        0.0000000000
   44       -0.0000000000
   45        0.0000000000
   46       -0.0092170100
   47        0.0751016100
   48        0.0000000000
   49        0.0260886100
   50       -0.2125740500
   51        0.0000000000
   52       -0.1115353300
   53        0.9088073100
   54       -0.0000000000
   55        0.1196574100
   56       -0.9749872900
   57       -0.0000000000
   58       -0.0000000000
   59       -0.0000000000
   60       -0.0083453100
   61        0.0679989000
   62       -0.0000000000
   63       -0.0000000000
   64       -0.0000000000
   65       -0.0000000000
   66        0.0150765300
   67       -0.1228459500
   68        0.0000000000
 Ene=          0.01911190
 Spin= Alpha
 Occup=        0.00000000
    1       -0.0000000000
    2        0.0000000000
    3        0.0000000000
    4       -0.0000000000
    5        0.0000000000
    6       -0.0000000000
    7        0.0000000000
    8       -0.0000000000
    9       -0.0000000000
   10        0.0000000000
   11        0.0000000000
   12       -0.0751016100
   13       -0.0092170100
   14        0.0000000000
   15        0.2125740500
   16        0.0260886100
   17        0.0000000000
   18       -0.9088073100
   19       -0.1115353300
   20       -0.0000000000
   21        0.9749872900
   22        0.1196574100
   23        0.0000000000
   24        0.0000000000
   25        0.0000000000
   26        0.0679989000
   27        0.0083453100
   28        0.0000000000
   29        0.0000000000
   30        0.0000000000
   31        0.0000000000
   32       -0.1228459500
   33       -0.0150765300
   34       -0.0000000000
   35        0.0000000000
   36       -0.0000000000
   37       -0.0000000000
   38        0.0000000000
   39       -0.0000000000
   40        0.0000000000
   41       -0.0000000000
   42        0.0000000000
   43        0.0000000000
   44        0.0000000000
   45        0.0000000000
   46       -0.0751016100
   47       -0.0092170100
   48        0.0000000000
   49        0.2125740500
   50        0.0260886100
   51        0.0000000000
   52       -0.9088073100
   53       -0.1115353300
   54       -0.0000000000
   55        0.9749872900
   56        0.1196574100
   57       -0.0000000000
   58       -0.0000000000
   59       -0.0000000000
   60       -0.0679989000
   61       -0.0083453100
   62       -0.0000000000
   63       -0.0000000000
   64       -0.0000000000
   65       -0.0000000000
   66        0.1228459500
   67        0.0150765300
   68        0.0000000000
 Ene=          0.02296190
 Spin= Alpha
 Occup=        0.00000000
    1        0.3964021500
    2        0.0527217600
    3       -0.1495734100
    4        0.9820980900
    5       -0.6510017900
    6       -0.0222070600
    7       -0.0685908100
    8        0.0456557100
    9        0.0015998800
   10        0.0001856500
   11       -0.4834761700
   12       -0.0000000000
   13       -0.0000000000
   14        0.1394352000
   15        0.0000000000
   16        0.0000000000
   17       -0.1974314700
   18       -0.0000000000
   19       -0.0000000000
   20       -0.3059715800
   21        0.0000000000
   22        0.0000000000
   23       -0.2377107800
   24       -0.0231867800
   25       -0.0231867800
   26       -0.0000000000
   27       -0.0000000000
   28        0.0000000000
   29       -0.0308331900
   30       -0.0563748500
   31       -0.0563748500
   32        0.0000000000
   33        0.0000000000
   34       -0.0000000000
   35        0.3964021500
   36        0.0527217600
   37       -0.1495734100
   38        0.9820980900
   39       -0.6510017900
   40       -0.0222070600
   41       -0.0685908100
   42        0.0456557100
   43        0.0015998800
   44        0.0001856500
   45        0.4834761700
   46        0.0000000000
   47        0.0000000000
   48       -0.1394352000
   49       -0.0000000000
   50       -0.0000000000
   51        0.1974314700
   52        0.0000000000
   53        0.0000000000
   54        0.3059715800
   55       -0.0000000000
   56       -0.0000000000
   57       -0.2377107800
   58       -0.0231867800
   59       -0.0231867800
   60       -0.0000000000
   61       -0.0000000000
   62       -0.0000000000
   63       -0.0308331900
   64       -0.0563748500
   65       -0.0563748500
   66        0.0000000000
   67        0.0000000000
   68        0.0000000000
 Ene=          0.02480830
 Spin= Alpha
 Occup=        0.00000000
    1       -0.0348348800
    2        4.0426333700
    3       -1.4128579700
    4        1.6894778900
    5       -0.8237563300
    6       -0.0074516000
    7       -0.0774792600
    8        0.0498333000
    9        0.0014137200
   10        0.0002507000
   11       -0.0295248800
   12       -0.0000000000
   13       -0.0000000000
   14        2.1206801700
   15        0.0000000000
   16        0.0000000000
   17       -0.7845988100
   18       -0.0000000000
   19       -0.0000000000
   20       -0.3132302800
   21        0.0000000000
   22        0.0000000000
   23       -0.0114019000
   24       -0.0273907200
   25       -0.0273907200
   26       -0.0000000000
   27       -0.0000000000
   28       -0.0000000000
   29        0.5325314800
   30        0.0209121700
   31        0.0209121700
   32        0.0000000000
   33        0.0000000000
   34        0.0000000000
   35        0.0348348800
   36       -4.0426333700
   37        1.4128579700
   38       -1.6894778900
   39        0.8237563300
   40        0.0074516000
   41        0.0774792600
   42       -0.0498333000
   43       -0.0014137200
   44       -0.0002507000
   45       -0.0295248800
   46        0.0000000000
   47        0.0000000000
   48        2.1206801700
   49       -0.0000000000
   50       -0.0000000000
   51       -0.7845988100
   52        0.0000000000
   53        0.0000000000
   54       -0.3132302800
   55       -0.0000000000
   56       -0.0000000000
   57        0.0114019000
   58        0.0273907200
   59        0.0273907200
   60       -0.0000000000
   61       -0.0000000000
   62        0.0000000000
   63       -0.5325314800
   64       -0.0209121700
   65       -0.0209121700
   66        0.0000000000
   67        0.0000000000
   68       -0.0000000000
 Ene=          0.02520940
 Spin= Alpha
 Occup=        0.00000000
    1       -0.0000000000
    2        0.0000000000
    3       -0.0000000000
    4        0.0000000000
    5       -0.0000000000
    6        0.0000000000
    7       -0.0000000000
    8        0.0000000000
    9       -0.0000000000
   10        0.0000000000
   11        0.0000000000
   12       -0.7943571600
   13        2.4888947200
   14        0.0000000000
   15        0.2082296900
   16       -0.6524291700
   17       -0.0000000000
   18       -0.4529020700
   19        1.4190412300
   20       -0.0000000000
   21        0.2491835400
   22       -0.7807465400
   23        0.0000000000
   24        0.0000000000
   25        0.0000000000
   26       -0.1923384000
   27        0.6026382600
   28        0.0000000000
   29        0.0000000000
   30        0.0000000000
   31        0.0000000000
   32        0.0194217000
   33       -0.0608524300
   34       -0.0000000000
   35       -0.0000000000
   36       -0.0000000000
   37       -0.0000000000
   38        0.0000000000
   39       -0.0000000000
   40        0.0000000000
   41       -0.0000000000
   42        0.0000000000
   43       -0.0000000000
   44        0.0000000000
   45       -0.0000000000
   46        0.7943571600
   47       -2.4888947200
   48        0.0000000000
   49       -0.2082296900
   50        0.6524291700
   51       -0.0000000000
   52        0.4529020700
   53       -1.4190412300
   54        0.0000000000
   55       -0.2491835400
   56        0.7807465400
   57        0.0000000000
   58       -0.0000000000
   59       -0.0000000000
   60       -0.1923384000
   61        0.6026382600
   62       -0.0000000000
   63       -0.0000000000
   64       -0.0000000000
   65       -0.0000000000
   66        0.0194217000
   67       -0.0608524300
   68        0.0000000000
 Ene=          0.02520940
 Spin= Alpha
 Occup=        0.00000000
    1        0.0000000000
    2       -0.0000000000
    3       -0.0000000000
    4        0.0000000000
    5       -0.0000000000
    6       -0.0000000000
    7       -0.0000000000
    8        0.0000000000
    9        0.0000000000
   10        0.0000000000
   11        0.0000000000
   12        2.4888947200
   13        0.7943571600
   14       -0.0000000000
   15       -0.6524291700
   16       -0.2082296900