[Molden Format]
[Title]
 Molden2AIM, Version 3.1.0 (02/25/2015)           Time: Thu Oct 17 19:55:59 2024

[Atoms] AU
E+       1       4     0.00000000     0.00000000     0.00000000
E+       2       4    53.40000000     0.00000000     0.00000000
[GTO]
    1 0
 S   1 1.0
    0.1000000000D-03      0.1000000000D+01
 S   1 1.0
    0.3000000000D-03      0.1000000000D+01
 S   1 1.0
    0.9000000000D-03      0.1000000000D+01
 S   1 1.0
    0.2700000000D-02      0.1000000000D+01
 S   1 1.0
    0.8100000000D-02      0.1000000000D+01
 S   1 1.0
    0.2430000000D-01      0.1000000000D+01
 S   1 1.0
    0.7290000000D-01      0.1000000000D+01
 S   1 1.0
    0.2187000000D+00      0.1000000000D+01
 S   1 1.0
    0.6561000000D+00      0.1000000000D+01
 S   1 1.0
    0.1968300000D+01      0.1000000000D+01
 P   1 1.0
    0.1000000000D-03      0.1000000000D+01
 P   1 1.0
    0.3000000000D-03      0.1000000000D+01
 P   1 1.0
    0.9000000000D-03      0.1000000000D+01
 P   1 1.0
    0.2700000000D-02      0.1000000000D+01
 D   1 1.0
    0.1000000000D-03      0.1000000000D+01
 D   1 1.0
    0.3000000000D-03      0.1000000000D+01

    2 0
 S   1 1.0
    0.1000000000D-03      0.1000000000D+01
 S   1 1.0
    0.3000000000D-03      0.1000000000D+01
 S   1 1.0
    0.9000000000D-03      0.1000000000D+01
 S   1 1.0
    0.2700000000D-02      0.1000000000D+01
 S   1 1.0
    0.8100000000D-02      0.1000000000D+01
 S   1 1.0
    0.2430000000D-01      0.1000000000D+01
 S   1 1.0
    0.7290000000D-01      0.1000000000D+01
 S   1 1.0
    0.2187000000D+00      0.1000000000D+01
 S   1 1.0
    0.6561000000D+00      0.1000000000D+01
 S   1 1.0
    0.1968300000D+01      0.1000000000D+01
 P   1 1.0
    0.1000000000D-03      0.1000000000D+01
 P   1 1.0
    0.3000000000D-03      0.1000000000D+01
 P   1 1.0
    0.9000000000D-03      0.1000000000D+01
 P   1 1.0
    0.2700000000D-02      0.1000000000D+01
 D   1 1.0
    0.1000000000D-03      0.1000000000D+01
 D   1 1.0
    0.3000000000D-03      0.1000000000D+01


[MO]
 Ene=          0.00220687
 Spin= Alpha
 Occup=        1.00000000
    1        0.2221265000
    2        0.1418311500
    3       -0.3692099700
    4       -0.1300084500
    5       -0.1640342000
    6       -0.1407045400
    7       -0.0857651200
    8        0.0696875700
    9        0.0048048500
   10       -0.0000743300
   11       -0.1947149800
   12       -0.0000000000
   13       -0.0000000000
   14        0.0623749200
   15       -0.0000000000
   16       -0.0000000000
   17       -0.1118470300
   18        0.0000000000
   19        0.0000000000
   20       -0.1974446900
   21       -0.0000000000
   22       -0.0000000000
   23       -0.1049512000
   24       -0.0175830500
   25       -0.0175830500
   26       -0.0000000000
   27        0.0000000000
   28       -0.0000000000
   29       -0.0566597600
   30       -0.0600942300
   31       -0.0600942300
   32       -0.0000000000
   33       -0.0000000000
   34        0.0000000000
   35        0.2221265000
   36        0.1418311500
   37       -0.3692099700
   38       -0.1300084500
   39       -0.1640342000
   40       -0.1407045400
   41       -0.0857651200
   42        0.0696875700
   43        0.0048048500
   44       -0.0000743300
   45        0.1947149800
   46        0.0000000000
   47        0.0000000000
   48       -0.0623749200
   49        0.0000000000
   50        0.0000000000
   51        0.1118470300
   52        0.0000000000
   53       -0.0000000000
   54        0.1974446900
   55       -0.0000000000
   56        0.0000000000
   57       -0.1049512000
   58       -0.0175830500
   59       -0.0175830500
   60       -0.0000000000
   61       -0.0000000000
   62        0.0000000000
   63       -0.0566597600
   64       -0.0600942300
   65       -0.0600942300
   66       -0.0000000000
   67       -0.0000000000
   68       -0.0000000000
 Ene=          0.00302836
 Spin= Alpha
 Occup=        0.00000000
    1        0.0210657300
    2       -1.2444735800
    3       -0.0031382200
    4       -0.3797068100
    5       -0.1622752900
    6       -0.1977599400
    7       -0.1027551600
    8        0.0865823400
    9        0.0065346700
   10       -0.0001725800
   11       -0.0279139900
   12        0.0000000000
   13        0.0000000000
   14       -0.7283898300
   15        0.0000000000
   16        0.0000000000
   17        0.1265560900
   18        0.0000000000
   19       -0.0000000000
   20       -0.2652497500
   21       -0.0000000000
   22        0.0000000000
   23       -0.0229719200
   24       -0.0196939700
   25       -0.0196939700
   26        0.0000000000
   27        0.0000000000
   28        0.0000000000
   29       -0.2524025500
   30       -0.0539170400
   31       -0.0539170400
   32        0.0000000000
   33        0.0000000000
   34       -0.0000000000
   35       -0.0210657300
   36        1.2444735800
   37        0.0031382200
   38        0.3797068100
   39        0.1622752900
   40        0.1977599400
   41        0.1027551600
   42       -0.0865823400
   43       -0.0065346700
   44        0.0001725800
   45       -0.0279139900
   46       -0.0000000000
   47       -0.0000000000
   48       -0.7283898300
   49       -0.0000000000
   50       -0.0000000000
   51        0.1265560900
   52       -0.0000000000
   53        0.0000000000
   54       -0.2652497500
   55        0.0000000000
   56       -0.0000000000
   57        0.0229719200
   58        0.0196939700
   59        0.0196939700
   60        0.0000000000
   61       -0.0000000000
   62       -0.0000000000
   63        0.2524025500
   64        0.0539170400
   65        0.0539170400
   66        0.0000000000
   67       -0.0000000000
   68        0.0000000000
 Ene=          0.00627747
 Spin= Alpha
 Occup=        0.00000000
    1       -0.5876013200
    2       -0.1520348900
    3        0.9014495700
    4       -0.6764975100
    5       -0.0880448600
    6       -0.1824332600
    7       -0.0720453600
    8        0.0652056900
    9        0.0057225700
   10       -0.0002417800
   11        0.7858738600
   12        0.0000000000
   13       -0.0000000000
   14       -0.2873808200
   15       -0.0000000000
   16        0.0000000000
   17        0.5269811600
   18        0.0000000000
   19       -0.0000000000
   20       -0.1796147300
   21       -0.0000000000
   22        0.0000000000
   23        0.3880578900
   24        0.0250921800
   25        0.0250921800
   26        0.0000000000
   27        0.0000000000
   28        0.0000000000
   29        0.0172341500
   30        0.0814847300
   31        0.0814847300
   32        0.0000000000
   33        0.0000000000
   34       -0.0000000000
   35       -0.5876013200
   36       -0.1520348900
   37        0.9014495700
   38       -0.6764975100
   39       -0.0880448600
   40       -0.1824332600
   41       -0.0720453600
   42        0.0652056900
   43        0.0057225700
   44       -0.0002417800
   45       -0.7858738600
   46       -0.0000000000
   47       -0.0000000000
   48        0.2873808200
   49        0.0000000000
   50       -0.0000000000
   51       -0.5269811600
   52       -0.0000000000
   53        0.0000000000
   54        0.1796147300
   55        0.0000000000
   56       -0.0000000000
   57        0.3880578900
   58        0.0250921800
   59        0.0250921800
   60        0.0000000000
   61       -0.0000000000
   62       -0.0000000000
   63        0.0172341500
   64        0.0814847300
   65        0.0814847300
   66        0.0000000000
   67        0.0000000000
   68        0.0000000000
 Ene=          0.01262150
 Spin= Alpha
 Occup=        0.00000000
    1        0.0028456700
    2        2.9139616100
    3       -0.8550207200
    4       -0.2823662700
    5        0.6003353800
    6        0.0804883900
    7        0.1059978600
    8       -0.0758178500
    9       -0.0035799300
   10       -0.0001657200
   11       -0.0998780000
   12       -0.0000000000
   13        0.0000000000
   14        1.4867460900
   15        0.0000000000
   16       -0.0000000000
   17       -0.2486422600
   18        0.0000000000
   19        0.0000000000
   20       -0.4299450400
   21        0.0000000000
   22       -0.0000000000
   23       -0.0862450100
   24       -0.0674657300
   25       -0.0674657300
   26       -0.0000000000
   27        0.0000000000
   28        0.0000000000
   29        0.2794128700
   30       -0.1263439100
   31       -0.1263439100
   32        0.0000000000
   33       -0.0000000000
   34       -0.0000000000
   35       -0.0028456700
   36       -2.9139616100
   37        0.8550207200
   38        0.2823662700
   39       -0.6003353800
   40       -0.0804883900
   41       -0.1059978600
   42        0.0758178500
   43        0.0035799300
   44        0.0001657200
   45       -0.0998780000
   46        0.0000000000
   47       -0.0000000000
   48        1.4867460900
   49       -0.0000000000
   50        0.0000000000
   51       -0.2486422600
   52        0.0000000000
   53       -0.0000000000
   54       -0.4299450400
   55       -0.0000000000
   56        0.0000000000
   57        0.0862450100
   58        0.0674657300
   59        0.0674657300
   60       -0.0000000000
   61        0.0000000000
   62       -0.0000000000
   63       -0.2794128700
   64        0.1263439100
   65        0.1263439100
   66        0.0000000000
   67       -0.0000000000
   68        0.0000000000
 Ene=          0.01413640
 Spin= Alpha
 Occup=        0.00000000
    1       -0.0000000000
    2       -0.0000000000
    3        0.0000000000
    4       -0.0000000000
    5        0.0000000000
    6       -0.0000000000
    7        0.0000000000
    8       -0.0000000000
    9        0.0000000000
   10       -0.0000000000
   11        0.0000000000
   12       -0.0492767500
   13        0.0279529800
   14       -0.0000000000
   15        0.1280371600
   16       -0.0726310000
   17        0.0000000000
   18       -0.4473134100
   19        0.2537452500
   20       -0.0000000000
   21       -0.2056026200
   22        0.1166311700
   23        0.0000000000
   24       -0.0000000000
   25       -0.0000000000
   26        0.0546930400
   27       -0.0310254500
   28       -0.0000000000
   29       -0.0000000000
   30       -0.0000000000
   31       -0.0000000000
   32       -0.0910646200
   33        0.0516577700
   34        0.0000000000
   35       -0.0000000000
   36        0.0000000000
   37       -0.0000000000
   38        0.0000000000
   39       -0.0000000000
   40       -0.0000000000
   41       -0.0000000000
   42        0.0000000000
   43        0.0000000000
   44        0.0000000000
   45       -0.0000000000
   46       -0.0492767500
   47        0.0279529800
   48       -0.0000000000
   49        0.1280371600
   50       -0.0726310000
   51        0.0000000000
   52       -0.4473134100
   53        0.2537452500
   54       -0.0000000000
   55       -0.2056026200
   56        0.1166311700
   57        0.0000000000
   58        0.0000000000
   59        0.0000000000
   60       -0.0546930400
   61        0.0310254500
   62        0.0000000000
   63        0.0000000000
   64        0.0000000000
   65        0.0000000000
   66        0.0910646200
   67       -0.0516577700
   68        0.0000000000
 Ene=          0.01413640
 Spin= Alpha
 Occup=        0.00000000
    1       -0.0000000000
    2        0.0000000000
    3        0.0000000000
    4        0.0000000000
    5       -0.0000000000
    6        0.0000000000
    7       -0.0000000000
    8        0.0000000000
    9        0.0000000000
   10        0.0000000000
   11       -0.0000000000
   12        0.0279529800
   13        0.0492767500
   14        0.0000000000
   15       -0.0726310000
   16       -0.1280371600
   17       -0.0000000000
   18        0.2537452500
   19        0.4473134100
   20        0.0000000000
   21        0.1166311700
   22        0.2056026200
   23        0.0000000000
   24        0.0000000000
   25        0.0000000000
   26       -0.0310254500
   27       -0.0546930400
   28        0.0000000000
   29        0.0000000000
   30        0.0000000000
   31        0.0000000000
   32        0.0516577700
   33        0.0910646200
   34        0.0000000000
   35       -0.0000000000
   36       -0.0000000000
   37       -0.0000000000
   38        0.0000000000
   39       -0.0000000000
   40        0.0000000000
   41       -0.0000000000
   42        0.0000000000
   43        0.0000000000
   44       -0.0000000000
   45        0.0000000000
   46        0.0279529800
   47        0.0492767500
   48        0.0000000000
   49       -0.0726310000
   50       -0.1280371600
   51        0.0000000000
   52        0.2537452500
   53        0.4473134100
   54       -0.0000000000
   55        0.1166311700
   56        0.2056026200
   57       -0.0000000000
   58       -0.0000000000
   59       -0.0000000000
   60        0.0310254500
   61        0.0546930400
   62       -0.0000000000
   63       -0.0000000000
   64        0.0000000000
   65        0.0000000000
   66       -0.0516577700
   67       -0.0910646200
   68       -0.0000000000
 Ene=          0.01456320
 Spin= Alpha
 Occup=        0.00000000
    1       -0.3212069000
    2       -0.3786271400
    3       -0.1470897400
    4        1.2534542000
    5       -0.8437402400
    6        0.0194482700
    7       -0.1109126400
    8        0.0685408900
    9        0.0011474200
   10        0.0004494800
   11       -0.4820259000
   12        0.0000000000
   13        0.0000000000
   14        0.0995851400
   15        0.0000000000
   16       -0.0000000000
   17       -0.5794919400
   18       -0.0000000000
   19       -0.0000000000
   20        0.8077176700
   21       -0.0000000000
   22       -0.0000000000
   23       -0.1344628800
   24        0.0831486200
   25        0.0831486200
   26        0.0000000000
   27        0.0000000000
   28        0.0000000000
   29        0.2189614500
   30        0.2669100200
   31        0.2669100200
   32        0.0000000000
   33       -0.0000000000
   34        0.0000000000
   35       -0.3212069000
   36       -0.3786271400
   37       -0.1470897400
   38        1.2534542000
   39       -0.8437402400
   40        0.0194482700
   41       -0.1109126400
   42        0.0685408900
   43        0.0011474200
   44        0.0004494800
   45        0.4820259000
   46       -0.0000000000
   47       -0.0000000000
   48       -0.0995851400
   49       -0.0000000000
   50        0.0000000000
   51        0.5794919400
   52       -0.0000000000
   53       -0.0000000000
   54       -0.8077176700
   55       -0.0000000000
   56       -0.0000000000
   57       -0.1344628800
   58        0.0831486200
   59        0.0831486200
   60        0.0000000000
   61        0.0000000000
   62       -0.0000000000
   63        0.2189614500
   64        0.2669100200
   65        0.2669100200
   66        0.0000000000
   67        0.0000000000
   68        0.0000000000
 Ene=          0.01652370
 Spin= Alpha
 Occup=        0.00000000
    1       -0.0000000000
    2       -0.0000000000
    3        0.0000000000
    4       -0.0000000000
    5        0.0000000000
    6        0.0000000000
    7        0.0000000000
    8       -0.0000000000
    9        0.0000000000
   10       -0.0000000000
   11        0.0000000000
   12       -0.0068630300
   13        0.0295445000
   14       -0.0000000000
   15       -0.0099330100
   16        0.0427603400
   17        0.0000000000
   18       -0.0102362900
   19        0.0440659500
   20       -0.0000000000
   21       -0.1558476900
   22        0.6709045300
   23        0.0000000000
   24       -0.0000000000
   25       -0.0000000000
   26       -0.0001171500
   27        0.0005043300
   28       -0.0000000000
   29       -0.0000000000
   30       -0.0000000000
   31       -0.0000000000
   32       -0.0095606500
   33        0.0411574000
   34        0.0000000000
   35       -0.0000000000
   36        0.0000000000
   37       -0.0000000000
   38        0.0000000000
   39       -0.0000000000
   40        0.0000000000
   41       -0.0000000000
   42        0.0000000000
   43       -0.0000000000
   44        0.0000000000
   45       -0.0000000000
   46        0.0068630300
   47       -0.0295445000
   48       -0.0000000000
   49        0.0099330100
   50       -0.0427603400
   51        0.0000000000
   52        0.0102362900
   53       -0.0440659500
   54       -0.0000000000
   55        0.1558476900
   56       -0.6709045300
   57        0.0000000000
   58        0.0000000000
   59        0.0000000000
   60       -0.0001171500
   61        0.0005043300
   62       -0.0000000000
   63        0.0000000000
   64        0.0000000000
   65        0.0000000000
   66       -0.0095606500
   67        0.0411574000
   68       -0.0000000000
 Ene=          0.01652370
 Spin= Alpha
 Occup=        0.00000000
    1       -0.0000000000
    2        0.0000000000
    3       -0.0000000000
    4        0.0000000000
    5       -0.0000000000
    6        0.0000000000
    7       -0.0000000000
    8        0.0000000000
    9       -0.0000000000
   10        0.0000000000
   11        0.0000000000
   12       -0.0295445000
   13       -0.0068630300
   14        0.0000000000
   15       -0.0427603400
   16       -0.0099330100
   17       -0.0000000000
   18       -0.0440659500
   19       -0.0102362900
   20        0.0000000000
   21       -0.6709045300
   22       -0.1558476900
   23        0.0000000000
   24        0.0000000000
   25        0.0000000000
   26       -0.0005043300
   27       -0.0001171500
   28       -0.0000000000
   29        0.0000000000
   30        0.0000000000
   31        0.0000000000
   32       -0.0411574000
   33       -0.0095606500
   34        0.0000000000
   35        0.0000000000
   36       -0.0000000000
   37        0.0000000000
   38       -0.0000000000
   39        0.0000000000
   40        0.0000000000
   41        0.0000000000
   42       -0.0000000000
   43        0.0000000000
   44       -0.0000000000
   45        0.0000000000
   46        0.0295445000
   47        0.0068630300
   48        0.0000000000
   49        0.0427603400
   50        0.0099330100
   51       -0.0000000000
   52        0.0440659500
   53        0.0102362900
   54        0.0000000000
   55        0.6709045300
   56        0.1558476900
   57       -0.0000000000
   58       -0.0000000000
   59       -0.0000000000
   60       -0.0005043300
   61       -0.0001171500
   62       -0.0000000000
   63       -0.0000000000
   64       -0.0000000000
   65       -0.0000000000
   66       -0.0411574000
   67       -0.0095606500
   68        0.0000000000
 Ene=          0.01923030
 Spin= Alpha
 Occup=        0.00000000
    1        0.1064880700
    2      -12.1126602000
    3        2.6029346000
    4       -1.7172714400
    5        0.6133852100
    6       -0.0624453500
    7        0.0568572700
    8       -0.0299414000
    9        0.0006041600
   10       -0.0003546700
   11        0.0456340700
   12        0.0000000000
   13       -0.0000000000
   14       -6.6825883400
   15       -0.0000000000
   16        0.0000000000
   17        1.6056881900
   18        0.0000000000
   19       -0.0000000000
   20       -0.6854811600
   21       -0.0000000000
   22       -0.0000000000
   23        0.0286257900
   24        0.0335459200
   25        0.0335459200
   26        0.0000000000
   27       -0.0000000000
   28       -0.0000000000
   29       -1.8412744600
   30       -0.0630585900
   31       -0.0630585900
   32       -0.0000000000
   33        0.0000000000
   34        0.0000000000
   35       -0.1064880700
   36       12.1126602000
   37       -2.6029346000
   38        1.7172714400
   39       -0.6133852100
   40        0.0624453500
   41       -0.0568572700
   42        0.0299414000
   43       -0.0006041600
   44        0.0003546700
   45        0.0456340700
   46       -0.0000000000
   47        0.0000000000
   48       -6.6825883400
   49        0.0000000000
   50       -0.0000000000
   51        1.6056881900
   52       -0.0000000000
   53        0.0000000000
   54       -0.6854811600
   55        0.0000000000
   56       -0.0000000000
   57       -0.0286257900
   58       -0.0335459200
   59       -0.0335459200
   60        0.0000000000
   61       -0.0000000000
   62        0.0000000000
   63        1.8412744600
   64        0.0630585900
   65        0.0630585900
   66       -0.0000000000
   67        0.0000000000
   68       -0.0000000000
 Ene=          0.02030700
 Spin= Alpha
 Occup=        0.00000000
    1        0.0000000000
    2        0.0000000000
    3        0.0000000000
    4       -0.0000000000
    5        0.0000000000
    6       -0.0000000000
    7        0.0000000000
    8       -0.0000000000
    9        0.0000000000
   10       -0.0000000000
   11        0.0000000000
   12       -0.0365776500
   13       -0.0634373200
   14        0.0000000000
   15        0.1008868900
   16        0.1749700700
   17        0.0000000000
   18       -0.4406415700
   19       -0.7642131400
   20       -0.0000000000
   21        0.4949000600
   22        0.8583146900
   23       -0.0000000000
   24        0.0000000000
   25        0.0000000000
   26        0.0369110400
   27        0.0640155300
   28        0.0000000000
   29        0.0000000000
   30       -0.0000000000
   31        0.0000000000
   32       -0.0632173800
   33       -0.1096391200
   34       -0.0000000000
   35        0.0000000000
   36       -0.0000000000
   37       -0.0000000000
   38        0.0000000000
   39       -0.0000000000
   40        0.0000000000
   41       -0.0000000000
   42        0.0000000000
   43       -0.0000000000
   44        0.0000000000
   45        0.0000000000
   46       -0.0365776500
   47       -0.0634373200
   48        0.0000000000
   49        0.1008868900
   50        0.1749700700
   51        0.0000000000
   52       -0.4406415700
   53       -0.7642131400
   54       -0.0000000000
   55        0.4949000600
   56        0.8583146900
   57       -0.0000000000
   58       -0.0000000000
   59       -0.0000000000
   60       -0.0369110400
   61       -0.0640155300
   62       -0.0000000000
   63       -0.0000000000
   64       -0.0000000000
   65       -0.0000000000
   66        0.0632173800
   67        0.1096391200
   68        0.0000000000
 Ene=          0.02030700
 Spin= Alpha
 Occup=        0.00000000
    1        0.0000000000
    2       -0.0000000000
    3       -0.0000000000
    4        0.0000000000
    5       -0.0000000000
    6        0.0000000000
    7       -0.0000000000
    8        0.0000000000
    9       -0.0000000000
   10       -0.0000000000
   11        0.0000000000
   12        0.0634373200
   13       -0.0365776500
   14       -0.0000000000
   15       -0.1749700700
   16        0.1008868900
   17       -0.0000000000
   18        0.7642131400
   19       -0.4406415700
   20        0.0000000000
   21       -0.8583146900
   22        0.4949000600
   23        0.0000000000
   24       -0.0000000000
   25       -0.0000000000
   26       -0.0640155300
   27        0.0369110400
   28        0.0000000000
   29       -0.0000000000
   30       -0.0000000000
   31       -0.0000000000
   32        0.1096391200
   33       -0.0632173800
   34       -0.0000000000
   35       -0.0000000000
   36        0.0000000000
   37       -0.0000000000
   38        0.0000000000
   39       -0.0000000000
   40        0.0000000000
   41        0.0000000000
   42       -0.0000000000
   43        0.0000000000
   44       -0.0000000000
   45       -0.0000000000
   46        0.0634373200
   47       -0.0365776500
   48       -0.0000000000
   49       -0.1749700700
   50        0.1008868900
   51       -0.0000000000
   52        0.7642131400
   53       -0.4406415700
   54        0.0000000000
   55       -0.8583146900
   56        0.4949000600
   57        0.0000000000
   58        0.0000000000
   59        0.0000000000
   60        0.0640155300
   61       -0.0369110400
   62       -0.0000000000
   63        0.0000000000
   64       -0.0000000000
   65       -0.0000000000
   66       -0.1096391200
   67        0.0632173800
   68        0.0000000000
 Ene=          0.02449800
 Spin= Alpha
 Occup=        0.00000000
    1        0.5082519300
    2        0.0658505100
    3       -0.1365697000
    4        0.9132255400
    5       -0.6248507600
    6       -0.0210581300
    7       -0.0665776500
    8        0.0443060800
    9        0.0015514300
   10        0.0001800900
   11       -0.5689924100
   12        0.0000000000
   13        0.0000000000
   14        0.1868009600
   15       -0.0000000000
   16        0.0000000000
   17       -0.2342219900
   18        0.0000000000
   19       -0.0000000000
   20       -0.2855973000
   21       -0.0000000000
   22       -0.0000000000
   23       -0.2965157000
   24       -0.0312281000
   25       -0.0312281000
   26        0.0000000000
   27        0.0000000000
   28       -0.0000000000
   29       -0.0338793800
   30       -0.0790311200
   31       -0.0790311200
   32       -0.0000000000
   33        0.0000000000
   34        0.0000000000
   35        0.5082519300
   36        0.0658505100
   37       -0.1365697000
   38        0.9132255400
   39       -0.6248507600
   40       -0.0210581300
   41       -0.0665776500
   42        0.0443060800
   43        0.0015514300
   44        0.0001800900
   45        0.5689924100
   46       -0.0000000000
   47       -0.0000000000
   48       -0.1868009600
   49        0.0000000000
   50       -0.0000000000
   51        0.2342219900
   52       -0.0000000000
   53       -0.0000000000
   54        0.2855973000
   55        0.0000000000
   56        0.0000000000
   57       -0.2965157000
   58       -0.0312281000
   59       -0.0312281000
   60        0.0000000000
   61        0.0000000000
   62       -0.0000000000
   63       -0.0338793800
   64       -0.0790311200
   65       -0.0790311200
   66       -0.0000000000
   67        0.0000000000
   68        0.0000000000
 Ene=          0.02609970
 Spin= Alpha
 Occup=        0.00000000
    1        0.0000000000
    2        0.0000000000
    3        0.0000000000
    4       -0.0000000000
    5        0.0000000000
    6       -0.0000000000
    7        0.0000000000
    8       -0.0000000000
    9        0.0000000000
   10       -0.0000000000
   11       -0.0000000000
   12       -0.7210943400
   13       -2.1131051100
   14        0.0000000000
   15        0.1981310200
   16        0.5806059600
   17       -0.0000000000
   18       -0.4716190800
   19       -1.3820392400
   20        0.0000000000
   21        0.2696986000
   22        0.7903286000
   23       -0.0000000000
   24        0.0000000000
   25        0.0000000000
   26       -0.1799417100
   27       -0.5273037400
   28       -0.0000000000
   29        0.0000000000
   30        0.0000000000
   31        0.0000000000
   32        0.0126823700
   33        0.0371646000
   34        0.0000000000
   35       -0.0000000000
   36       -0.0000000000
   37       -0.0000000000
   38        0.0000000000
   39       -0.0000000000
   40       -0.0000000000
   41       -0.0000000000
   42        0.0000000000
   43        0.0000000000
   44       -0.0000000000
   45        0.0000000000
   46        0.7210943400
   47        2.1131051100
   48        0.0000000000
   49       -0.1981310200
   50       -0.5806059600
   51       -0.0000000000
   52        0.4716190800
   53        1.3820392400
   54        0.0000000000
   55       -0.2696986000
   56       -0.7903286000
   57       -0.0000000000
   58       -0.0000000000
   59       -0.0000000000
   60       -0.1799417100
   61       -0.5273037400
   62        0.0000000000
   63       -0.0000000000
   64       -0.0000000000
   65       -0.0000000000
   66        0.0126823700
   67        0.0371646000
   68       -0.0000000000
 Ene=          0.02609970
 Spin= Alpha
 Occup=        0.00000000
    1       -0.0000000000
    2        0.0000000000
    3       -0.0000000000
    4        0.0000000000
    5       -0.0000000000
    6       -0.0000000000
    7       -0.0000000000
    8        0.0000000000
    9        0.0000000000
   10        0.0000000000
   11       -0.0000000000
   12       -2.1131051100
   13        0.7210943400
   14        0.0000000000
   15        0.5806059600
   16       -0.1981310200
   17       -0.0000000000
   18       -1.3820392400
   19        0.4716190800
   20       -0.0000000000
   21        0.7903286000
   22       -0.2696986000
   23       -0.0000000000
   24        0.0000000000
   25        0.0000000000
   26       -0.5273037400
   27        0.1799417100
   28        0.0000000000
   29        0.0000000000
   30        0.0000000000
   31        0.0000000000
   32        0.0371646000
   33       -0.0126823700
   34       -0.0000000000
   35        0.0000000000
   36       -0.0000000000
   37        0.0000000000
   38       -0.0000000000
   39        0.0000000000
   40        0.0000000000
   41        0.0000000000
   42       -0.0000000000
   43       -0.0000000000
   44        0.0000000000
   45        0.0000000000
   46        2.1131051100
   47       -0.7210943400
   48        0.0000000000
   49       -0.5806059600
   50        0.1981310200
   51       -0.0000000000
   52        1.3820392400
   53       -0.4716190800
   54       -0.0000000000
   55       -0.7903286000
   56        0.2696986000
   57       -0.0000000000
   58       -0.0000000000
   59       -0.0000000000
   60       -0.5273037400
   61        0.1799417100
   62       -0.0000000000
   63       -0.0000000000
   64       -0.0000000000
   65       -0.0000000000
   66        0.0371646000
   67       -0.0126823700
   68        0.0000000000
 Ene=          0.02624530
 Spin= Alpha
 Occup=        0.00000000
    1       -0.0257132200
    2        2.9143005100
    3       -1.1307020700
    4        1.5667514800
    5       -0.7979528000
    6       -0.0051434600
    7       -0.0762220700
    8        0.0488451500
    9        0.0013472400
   10        0.0002508800
   11       -0.0147823400
   12       -0.0000000000
   13        0.0000000000
   14        1.6564340200
   15       -0.0000000000
   16        0.0000000000