[Molden Format]
[Title]
 Molden2AIM, Version 3.1.0 (02/25/2015)           Time: Thu Oct 17 19:53:11 2024

[Atoms] AU
E+       1       4     0.00000000     0.00000000     0.00000000
E+       2       4    16.40000000     0.00000000     0.00000000
[GTO]
    1 0
 S   1 1.0
    0.1000000000D-03      0.1000000000D+01
 S   1 1.0
    0.3000000000D-03      0.1000000000D+01
 S   1 1.0
    0.9000000000D-03      0.1000000000D+01
 S   1 1.0
    0.2700000000D-02      0.1000000000D+01
 S   1 1.0
    0.8100000000D-02      0.1000000000D+01
 S   1 1.0
    0.2430000000D-01      0.1000000000D+01
 S   1 1.0
    0.7290000000D-01      0.1000000000D+01
 S   1 1.0
    0.2187000000D+00      0.1000000000D+01
 S   1 1.0
    0.6561000000D+00      0.1000000000D+01
 S   1 1.0
    0.1968300000D+01      0.1000000000D+01
 P   1 1.0
    0.1000000000D-03      0.1000000000D+01
 P   1 1.0
    0.3000000000D-03      0.1000000000D+01
 P   1 1.0
    0.9000000000D-03      0.1000000000D+01
 P   1 1.0
    0.2700000000D-02      0.1000000000D+01
 D   1 1.0
    0.1000000000D-03      0.1000000000D+01
 D   1 1.0
    0.3000000000D-03      0.1000000000D+01

    2 0
 S   1 1.0
    0.1000000000D-03      0.1000000000D+01
 S   1 1.0
    0.3000000000D-03      0.1000000000D+01
 S   1 1.0
    0.9000000000D-03      0.1000000000D+01
 S   1 1.0
    0.2700000000D-02      0.1000000000D+01
 S   1 1.0
    0.8100000000D-02      0.1000000000D+01
 S   1 1.0
    0.2430000000D-01      0.1000000000D+01
 S   1 1.0
    0.7290000000D-01      0.1000000000D+01
 S   1 1.0
    0.2187000000D+00      0.1000000000D+01
 S   1 1.0
    0.6561000000D+00      0.1000000000D+01
 S   1 1.0
    0.1968300000D+01      0.1000000000D+01
 P   1 1.0
    0.1000000000D-03      0.1000000000D+01
 P   1 1.0
    0.3000000000D-03      0.1000000000D+01
 P   1 1.0
    0.9000000000D-03      0.1000000000D+01
 P   1 1.0
    0.2700000000D-02      0.1000000000D+01
 D   1 1.0
    0.1000000000D-03      0.1000000000D+01
 D   1 1.0
    0.3000000000D-03      0.1000000000D+01


[MO]
 Ene=         -0.00580842
 Spin= Alpha
 Occup=        1.00000000
    1        0.0098090000
    2        0.1036698700
    3       -0.0430515800
    4       -0.1520184800
    5       -0.2458384100
    6       -0.2027029900
    7       -0.1245479500
    8        0.1001470800
    9        0.0068944100
   10       -0.0001044600
   11        0.0043509900
   12       -0.0000000000
   13        0.0000000000
   14       -0.2936228000
   15        0.0000000000
   16        0.0000000000
   17        0.0238426500
   18       -0.0000000000
   19       -0.0000000000
   20       -0.0331670100
   21        0.0000000000
   22        0.0000000000
   23       -0.0008636200
   24       -0.0013408000
   25       -0.0013408000
   26       -0.0000000000
   27        0.0000000000
   28       -0.0000000000
   29       -0.0786115500
   30       -0.0069968800
   31       -0.0069968800
   32        0.0000000000
   33        0.0000000000
   34       -0.0000000000
   35        0.0098090000
   36        0.1036698700
   37       -0.0430515800
   38       -0.1520184800
   39       -0.2458384100
   40       -0.2027029900
   41       -0.1245479500
   42        0.1001470800
   43        0.0068944100
   44       -0.0001044600
   45       -0.0043509900
   46        0.0000000000
   47       -0.0000000000
   48        0.2936228000
   49       -0.0000000000
   50       -0.0000000000
   51       -0.0238426500
   52        0.0000000000
   53        0.0000000000
   54        0.0331670100
   55       -0.0000000000
   56       -0.0000000000
   57       -0.0008636200
   58       -0.0013408000
   59       -0.0013408000
   60       -0.0000000000
   61        0.0000000000
   62       -0.0000000000
   63       -0.0786115500
   64       -0.0069968800
   65       -0.0069968800
   66        0.0000000000
   67        0.0000000000
   68        0.0000000000
 Ene=         -0.00055382
 Spin= Alpha
 Occup=        0.00000000
    1       -0.0017286000
    2       -0.0006476000
    3        1.4667817400
    4        0.2058084800
    5        0.3305855800
    6        0.2119693100
    7        0.1269087500
    8       -0.1020164700
    9       -0.0070641400
   10        0.0001037700
   11        0.0188414400
   12        0.0000000000
   13       -0.0000000000
   14        0.0060692400
   15       -0.0000000000
   16        0.0000000000
   17        0.2920115900
   18       -0.0000000000
   19       -0.0000000000
   20       -0.0945445500
   21       -0.0000000000
   22        0.0000000000
   23        0.0362739000
   24        0.0493119500
   25        0.0493119500
   26        0.0000000000
   27       -0.0000000000
   28       -0.0000000000
   29        0.0809881200
   30        0.0589260400
   31        0.0589260400
   32       -0.0000000000
   33        0.0000000000
   34        0.0000000000
   35        0.0017286000
   36        0.0006476000
   37       -1.4667817400
   38       -0.2058084800
   39       -0.3305855800
   40       -0.2119693100
   41       -0.1269087500
   42        0.1020164700
   43        0.0070641400
   44       -0.0001037700
   45        0.0188414400
   46       -0.0000000000
   47        0.0000000000
   48        0.0060692400
   49        0.0000000000
   50       -0.0000000000
   51        0.2920115900
   52        0.0000000000
   53        0.0000000000
   54       -0.0945445500
   55        0.0000000000
   56       -0.0000000000
   57       -0.0362739000
   58       -0.0493119500
   59       -0.0493119500
   60        0.0000000000
   61       -0.0000000000
   62        0.0000000000
   63       -0.0809881200
   64       -0.0589260400
   65       -0.0589260400
   66       -0.0000000000
   67        0.0000000000
   68       -0.0000000000
 Ene=          0.00297552
 Spin= Alpha
 Occup=        0.00000000
    1       -0.1632781700
    2        0.0986764200
    3        1.1870242300
    4       -0.7724076400
    5        0.0950622900
    6       -0.1116004000
    7       -0.0180341100
    8        0.0228696100
    9        0.0030929400
   10       -0.0002380800
   11       -0.0148464000
   12       -0.0000000000
   13        0.0000000000
   14       -1.4783766900
   15        0.0000000000
   16        0.0000000000
   17        0.3353149900
   18       -0.0000000000
   19       -0.0000000000
   20       -0.0721163500
   21        0.0000000000
   22        0.0000000000
   23        0.0193183300
   24        0.0242488800
   25        0.0242488800
   26       -0.0000000000
   27        0.0000000000
   28       -0.0000000000
   29       -0.2528343200
   30        0.0985995700
   31        0.0985995700
   32        0.0000000000
   33        0.0000000000
   34        0.0000000000
   35       -0.1632781700
   36        0.0986764200
   37        1.1870242300
   38       -0.7724076400
   39        0.0950622900
   40       -0.1116004000
   41       -0.0180341100
   42        0.0228696100
   43        0.0030929400
   44       -0.0002380800
   45        0.0148464000
   46        0.0000000000
   47       -0.0000000000
   48        1.4783766900
   49       -0.0000000000
   50       -0.0000000000
   51       -0.3353149900
   52        0.0000000000
   53        0.0000000000
   54        0.0721163500
   55       -0.0000000000
   56       -0.0000000000
   57        0.0193183300
   58        0.0242488800
   59        0.0242488800
   60       -0.0000000000
   61        0.0000000000
   62        0.0000000000
   63       -0.2528343200
   64        0.0985995700
   65        0.0985995700
   66        0.0000000000
   67        0.0000000000
   68       -0.0000000000
 Ene=          0.00378442
 Spin= Alpha
 Occup=        0.00000000
    1        0.0000000000
    2        0.0000000000
    3        0.0000000000
    4       -0.0000000000
    5        0.0000000000
    6       -0.0000000000
    7        0.0000000000
    8        0.0000000000
    9        0.0000000000
   10       -0.0000000000
   11        0.0000000000
   12        0.0000686500
   13        0.0291865900
   14       -0.0000000000
   15       -0.0002835100
   16       -0.1205277600
   17        0.0000000000
   18        0.0012587600
   19        0.5351389100
   20       -0.0000000000
   21        0.0001728600
   22        0.0734873900
   23       -0.0000000000
   24        0.0000000000
   25       -0.0000000000
   26        0.0002006400
   27        0.0852969400
   28       -0.0000000000
   29       -0.0000000000
   30       -0.0000000000
   31       -0.0000000000
   32       -0.0000837500
   33       -0.0356027800
   34       -0.0000000000
   35        0.0000000000
   36        0.0000000000
   37       -0.0000000000
   38        0.0000000000
   39       -0.0000000000
   40        0.0000000000
   41       -0.0000000000
   42        0.0000000000
   43       -0.0000000000
   44        0.0000000000
   45       -0.0000000000
   46        0.0000686500
   47        0.0291865900
   48        0.0000000000
   49       -0.0002835100
   50       -0.1205277600
   51        0.0000000000
   52        0.0012587600
   53        0.5351389100
   54       -0.0000000000
   55        0.0001728600
   56        0.0734873900
   57        0.0000000000
   58       -0.0000000000
   59       -0.0000000000
   60       -0.0002006400
   61       -0.0852969400
   62        0.0000000000
   63       -0.0000000000
   64        0.0000000000
   65        0.0000000000
   66        0.0000837500
   67        0.0356027800
   68        0.0000000000
 Ene=          0.00378442
 Spin= Alpha
 Occup=        0.00000000
    1        0.0000000000
    2        0.0000000000
    3       -0.0000000000
    4        0.0000000000
    5       -0.0000000000
    6        0.0000000000
    7        0.0000000000
    8       -0.0000000000
    9        0.0000000000
   10       -0.0000000000
   11        0.0000000000
   12        0.0291865900
   13       -0.0000686500
   14       -0.0000000000
   15       -0.1205277600
   16        0.0002835100
   17       -0.0000000000
   18        0.5351389100
   19       -0.0012587600
   20        0.0000000000
   21        0.0734873900
   22       -0.0001728600
   23        0.0000000000
   24       -0.0000000000
   25       -0.0000000000
   26        0.0852969400
   27       -0.0002006400
   28        0.0000000000
   29       -0.0000000000
   30       -0.0000000000
   31       -0.0000000000
   32       -0.0356027800
   33        0.0000837500
   34       -0.0000000000
   35        0.0000000000
   36        0.0000000000
   37        0.0000000000
   38       -0.0000000000
   39        0.0000000000
   40       -0.0000000000
   41        0.0000000000
   42       -0.0000000000
   43        0.0000000000
   44        0.0000000000
   45       -0.0000000000
   46        0.0291865900
   47       -0.0000686500
   48        0.0000000000
   49       -0.1205277600
   50        0.0002835100
   51       -0.0000000000
   52        0.5351389100
   53       -0.0012587600
   54        0.0000000000
   55        0.0734873900
   56       -0.0001728600
   57        0.0000000000
   58        0.0000000000
   59        0.0000000000
   60       -0.0852969400
   61        0.0002006400
   62       -0.0000000000
   63       -0.0000000000
   64       -0.0000000000
   65       -0.0000000000
   66        0.0356027800
   67       -0.0000837500
   68        0.0000000000
 Ene=          0.00500861
 Spin= Alpha
 Occup=        0.00000000
    1       -0.0134289200
    2       -0.0071008300
    3       11.8435469400
    4       -1.2778518800
    5       -0.1976309000
    6       -0.0996492200
    7       -0.0652925500
    8        0.0509908400
    9        0.0032791100
   10       -0.0000114700
   11        0.1460556900
   12        0.0000000000
   13       -0.0000000000
   14        0.0636579800
   15        0.0000000000
   16        0.0000000000
   17        2.2777068000
   18       -0.0000000000
   19       -0.0000000000
   20       -0.3714568300
   21        0.0000000000
   22        0.0000000000
   23        0.2847791600
   24        0.3784264600
   25        0.3784264600
   26        0.0000000000
   27       -0.0000000000
   28        0.0000000000
   29        0.6429343900
   30        0.4823908600
   31        0.4823908600
   32        0.0000000000
   33        0.0000000000
   34       -0.0000000000
   35        0.0134289200
   36        0.0071008300
   37      -11.8435469400
   38        1.2778518800
   39        0.1976309000
   40        0.0996492200
   41        0.0652925500
   42       -0.0509908400
   43       -0.0032791100
   44        0.0000114700
   45        0.1460556900
   46       -0.0000000000
   47        0.0000000000
   48        0.0636579800
   49       -0.0000000000
   50       -0.0000000000
   51        2.2777068000
   52        0.0000000000
   53        0.0000000000
   54       -0.3714568300
   55        0.0000000000
   56       -0.0000000000
   57       -0.2847791600
   58       -0.3784264600
   59       -0.3784264600
   60        0.0000000000
   61       -0.0000000000
   62       -0.0000000000
   63       -0.6429343900
   64       -0.4823908600
   65       -0.4823908600
   66        0.0000000000
   67        0.0000000000
   68        0.0000000000
 Ene=          0.00674433
 Spin= Alpha
 Occup=        0.00000000
    1       -0.2133661000
    2       -2.3406945700
    3        0.1425500200
    4        0.7751659300
    5       -0.2101086800
    6        0.0503792500
    7       -0.0259121900
    8        0.0108306300
    9       -0.0009846400
   10        0.0002372100
   11       -0.1012935400
   12        0.0000000000
   13       -0.0000000000
   14        7.0269287000
   15       -0.0000000000
   16       -0.0000000000
   17       -1.2022993300
   18        0.0000000000
   19        0.0000000000
   20       -0.5074319500
   21        0.0000000000
   22        0.0000000000
   23        0.0254393400
   24        0.0274529700
   25        0.0274529700
   26        0.0000000000
   27       -0.0000000000
   28        0.0000000000
   29        1.8274222000
   30        0.1471928500
   31        0.1471928500
   32       -0.0000000000
   33       -0.0000000000
   34       -0.0000000000
   35       -0.2133661000
   36       -2.3406945800
   37        0.1425500200
   38        0.7751659300
   39       -0.2101086800
   40        0.0503792500
   41       -0.0259121900
   42        0.0108306300
   43       -0.0009846400
   44        0.0002372100
   45        0.1012935400
   46       -0.0000000000
   47        0.0000000000
   48       -7.0269287000
   49        0.0000000000
   50        0.0000000000
   51        1.2022993300
   52       -0.0000000000
   53       -0.0000000000
   54        0.5074319500
   55       -0.0000000000
   56       -0.0000000000
   57        0.0254393400
   58        0.0274529700
   59        0.0274529700
   60        0.0000000000
   61       -0.0000000000
   62       -0.0000000000
   63        1.8274222000
   64        0.1471928500
   65        0.1471928500
   66       -0.0000000000
   67       -0.0000000000
   68        0.0000000000
 Ene=          0.00696219
 Spin= Alpha
 Occup=        0.00000000
    1        0.0000000000
    2       -0.0000000000
    3       -0.0000000000
    4       -0.0000000000
    5        0.0000000000
    6       -0.0000000000
    7        0.0000000000
    8        0.0000000000
    9        0.0000000000
   10       -0.0000000000
   11       -0.0000000000
   12       -0.3836093900
   13       -0.0659342500
   14       -0.0000000000
   15       -7.1499571900
   16       -1.2289247500
   17       -0.0000000000
   18        1.4924175400
   19        0.2565146600
   20        0.0000000000
   21        0.5946530500
   22        0.1022081400
   23       -0.0000000000
   24        0.0000000000
   25        0.0000000000
   26       -0.0535666300
   27       -0.0092069600
   28        0.0000000000
   29       -0.0000000000
   30        0.0000000000
   31        0.0000000000
   32       -0.9474602200
   33       -0.1628481500
   34       -0.0000000000
   35       -0.0000000000
   36        0.0000000000
   37        0.0000000000
   38       -0.0000000000
   39        0.0000000000
   40       -0.0000000000
   41        0.0000000000
   42       -0.0000000000
   43        0.0000000000
   44       -0.0000000000
   45        0.0000000000
   46        0.3836093900
   47        0.0659342500
   48        0.0000000000
   49        7.1499571900
   50        1.2289247500
   51       -0.0000000000
   52       -1.4924175400
   53       -0.2565146600
   54       -0.0000000000
   55       -0.5946530500
   56       -0.1022081400
   57       -0.0000000000
   58        0.0000000000
   59        0.0000000000
   60       -0.0535666300
   61       -0.0092069600
   62       -0.0000000000
   63       -0.0000000000
   64       -0.0000000000
   65       -0.0000000000
   66       -0.9474602200
   67       -0.1628481500
   68        0.0000000000
 Ene=          0.00696219
 Spin= Alpha
 Occup=        0.00000000
    1       -0.0000000000
    2        0.0000000000
    3        0.0000000000
    4        0.0000000000
    5       -0.0000000000
    6        0.0000000000
    7       -0.0000000000
    8        0.0000000000
    9       -0.0000000000
   10        0.0000000000
   11        0.0000000000
   12       -0.0659342500
   13        0.3836093900
   14        0.0000000000
   15       -1.2289247500
   16        7.1499571900
   17       -0.0000000000
   18        0.2565146600
   19       -1.4924175400
   20       -0.0000000000
   21        0.1022081400
   22       -0.5946530500
   23        0.0000000000
   24       -0.0000000000
   25       -0.0000000000
   26       -0.0092069600
   27        0.0535666300
   28        0.0000000000
   29        0.0000000000
   30       -0.0000000000
   31       -0.0000000000
   32       -0.1628481500
   33        0.9474602200
   34       -0.0000000000
   35        0.0000000000
   36       -0.0000000000
   37       -0.0000000000
   38        0.0000000000
   39       -0.0000000000
   40        0.0000000000
   41       -0.0000000000
   42        0.0000000000
   43       -0.0000000000
   44        0.0000000000
   45       -0.0000000000
   46        0.0659342500
   47       -0.3836093900
   48        0.0000000000
   49        1.2289247500
   50       -7.1499571900
   51        0.0000000000
   52       -0.2565146600
   53        1.4924175400
   54        0.0000000000
   55       -0.1022081400
   56        0.5946530500
   57        0.0000000000
   58       -0.0000000000
   59       -0.0000000000
   60       -0.0092069600
   61        0.0535666300
   62       -0.0000000000
   63       -0.0000000000
   64        0.0000000000
   65        0.0000000000
   66       -0.1628481500
   67        0.9474602200
   68        0.0000000000
 Ene=          0.00974754
 Spin= Alpha
 Occup=        0.00000000
    1        0.0000000000
    2        0.0000000000
    3        0.0000000000
    4        0.0000000000
    5        0.0000000000
    6        0.0000000000
    7        0.0000000000
    8       -0.0000000000
    9       -0.0000000000
   10       -0.0000000000
   11       -0.0000000000
   12       -0.0001311300
   13        0.0332675300
   14       -0.0000000000
   15        0.0005419600
   16       -0.1374908400
   17        0.0000000000
   18       -0.0028256900
   19        0.7168614100
   20        0.0000000000
   21        0.0032218600
   22       -0.8173665100
   23       -0.0000000000
   24       -0.0000000000
   25       -0.0000000000
   26       -0.0003231600
   27        0.0819832000
   28       -0.0000000000
   29       -0.0000000000
   30       -0.0000000000
   31       -0.0000000000
   32        0.0001001200
   33       -0.0253990000
   34        0.0000000000
   35        0.0000000000
   36        0.0000000000
   37       -0.0000000000
   38       -0.0000000000
   39       -0.0000000000
   40       -0.0000000000
   41       -0.0000000000
   42        0.0000000000
   43       -0.0000000000
   44        0.0000000000
   45       -0.0000000000
   46       -0.0001311300
   47        0.0332675300
   48        0.0000000000
   49        0.0005419600
   50       -0.1374908400
   51        0.0000000000
   52       -0.0028256900
   53        0.7168614100
   54        0.0000000000
   55        0.0032218600
   56       -0.8173665100
   57        0.0000000000
   58        0.0000000000
   59        0.0000000000
   60        0.0003231600
   61       -0.0819832000
   62        0.0000000000
   63       -0.0000000000
   64        0.0000000000
   65        0.0000000000
   66       -0.0001001200
   67        0.0253990000
   68       -0.0000000000
 Ene=          0.00974754
 Spin= Alpha
 Occup=        0.00000000
    1       -0.0000000000
    2       -0.0000000000
    3       -0.0000000000
    4       -0.0000000000
    5       -0.0000000000
    6       -0.0000000000
    7       -0.0000000000
    8        0.0000000000
    9       -0.0000000000
   10        0.0000000000
   11       -0.0000000000
   12        0.0332675300
   13        0.0001311300
   14        0.0000000000
   15       -0.1374908400
   16       -0.0005419600
   17       -0.0000000000
   18        0.7168614100
   19        0.0028256900
   20       -0.0000000000
   21       -0.8173665100
   22       -0.0032218600
   23        0.0000000000
   24       -0.0000000000
   25       -0.0000000000
   26        0.0819832000
   27        0.0003231600
   28        0.0000000000
   29        0.0000000000
   30        0.0000000000
   31        0.0000000000
   32       -0.0253990000
   33       -0.0001001200
   34       -0.0000000000
   35       -0.0000000000
   36       -0.0000000000
   37        0.0000000000
   38        0.0000000000
   39        0.0000000000
   40        0.0000000000
   41        0.0000000000
   42       -0.0000000000
   43       -0.0000000000
   44        0.0000000000
   45        0.0000000000
   46        0.0332675300
   47        0.0001311300
   48       -0.0000000000
   49       -0.1374908400
   50       -0.0005419600
   51       -0.0000000000
   52        0.7168614100
   53        0.0028256900
   54       -0.0000000000
   55       -0.8173665100
   56       -0.0032218600
   57       -0.0000000000
   58        0.0000000000
   59        0.0000000000
   60       -0.0819832000
   61       -0.0003231600
   62       -0.0000000000
   63        0.0000000000
   64       -0.0000000000
   65       -0.0000000000
   66        0.0253990000
   67        0.0001001200
   68        0.0000000000
 Ene=          0.01039040
 Spin= Alpha
 Occup=        0.00000000
    1        0.0002218800
    2       -0.0559184800
    3      -32.7227494100
    4       -4.9973140800
    5        0.0366524000
    6       -0.0444915300
    7       -0.0166608800
    8        0.0146598500
    9        0.0012415200
   10       -0.0000446400
   11       -0.0003407100
   12       -0.0000000000
   13        0.0000000000
   14        0.1948932300
   15       -0.0000000000
   16       -0.0000000000
   17       -7.9751810900
   18        0.0000000000
   19        0.0000000000
   20       -3.4283002700
   21       -0.0000000000
   22       -0.0000000000
   23        0.1662005500
   24       -0.1450307300
   25       -0.1450307300
   26       -0.0000000000
   27        0.0000000000
   28       -0.0000000000
   29        0.0418601300
   30        0.5103769200
   31        0.5103769200
   32       -0.0000000000
   33       -0.0000000000
   34        0.0000000000
   35       -0.0002218800
   36        0.0559184800
   37       32.7227494100
   38        4.9973140800
   39       -0.0366524000
   40        0.0444915300
   41        0.0166608800
   42       -0.0146598500
   43       -0.0012415200
   44        0.0000446400
   45       -0.0003407100
   46        0.0000000000
   47       -0.0000000000
   48        0.1948932300
   49        0.0000000000
   50        0.0000000000
   51       -7.9751810900
   52       -0.0000000000
   53       -0.0000000000
   54       -3.4283002700
   55        0.0000000000
   56        0.0000000000
   57       -0.1662005500
   58        0.1450307300
   59        0.1450307300
   60       -0.0000000000
   61        0.0000000000
   62        0.0000000000
   63       -0.0418601300
   64       -0.5103769200
   65       -0.5103769200
   66       -0.0000000000
   67       -0.0000000000
   68       -0.0000000000
 Ene=          0.01261390
 Spin= Alpha
 Occup=        0.00000000
    1       -0.2041703800
    2        1.1433930000
    3       -0.7521751700
    4        1.7341009400
    5       -1.2525449500
    6        0.0972622900
    7       -0.1311507900
    8        0.0722841500
    9       -0.0005583600
   10        0.0007299600
   11       -0.0032876600
   12       -0.0000000000
   13        0.0000000000
   14       -3.9545344300
   15       -0.0000000000
   16        0.0000000000
   17        0.2545590500
   18        0.0000000000
   19       -0.0000000000
   20        0.0273456600
   21       -0.0000000000
   22        0.0000000000
   23        0.0326522400
   24        0.0328038500
   25        0.0328038500
   26       -0.0000000000
   27        0.0000000000
   28        0.0000000000
   29       -0.9089615100
   30        0.0618742000
   31        0.0618742000
   32       -0.0000000000
   33        0.0000000000
   34       -0.0000000000
   35       -0.2041703800
   36        1.1433930000
   37       -0.7521751700
   38        1.7341009400
   39       -1.2525449500
   40        0.0972622900
   41       -0.1311507900
   42        0.0722841500
   43       -0.0005583600
   44        0.0007299600
   45        0.0032876600
   46        0.0000000000
   47       -0.0000000000
   48        3.9545344300
   49        0.0000000000
   50       -0.0000000000
   51       -0.2545590500
   52       -0.0000000000
   53        0.0000000000
   54       -0.0273456600
   55        0.0000000000
   56       -0.0000000000
   57        0.0326522400
   58        0.0328038500
   59        0.0328038500
   60       -0.0000000000
   61        0.0000000000
   62       -0.0000000000
   63       -0.9089615100
   64        0.0618742000
   65        0.0618742000
   66       -0.0000000000
   67        0.0000000000
   68        0.0000000000
 Ene=          0.01481970
 Spin= Alpha
 Occup=        0.00000000
    1       -0.0144953500
    2       -0.0636235300
    3      -11.4955722400
    4       -3.8758732500
    5        1.2131043500
    6       -0.0860164200
    7        0.1228648000
    8       -0.0693300900
    9       -0.0000132200
   10       -0.0006230300
   11        0.1586287000
   12       -0.0000000000
   13        0.0000000000
   14        0.3045822700
   15       -0.0000000000
   16       -0.0000000000
   17       -3.9972352100
   18        0.0000000000
   19        0.0000000000
   20       -0.5436329700
   21       -0.0000000000
   22       -0.0000000000
   23        0.4496759600
   24        0.2777376000
   25        0.2777376000
   26       -0.0000000000
   27        0.0000000000
   28       -0.0000000000
   29        0.8192111600
   30        1.0432871300
   31        1.0432871300
   32       -0.0000000000
   33       -0.0000000000
   34        0.0000000000
   35        0.0144953500
   36        0.0636235300
   37       11.4955722400
   38        3.8758732500
   39       -1.2131043500
   40        0.0860164200
   41       -0.1228648000
   42        0.0693300900
   43        0.0000132200
   44        0.0006230300
   45        0.1586287000
   46        0.0000000000
   47       -0.0000000000
   48        0.3045822700
   49        0.0000000000
   50        0.0000000000
   51       -3.9972352100
   52       -0.0000000000
   53       -0.0000000000
   54       -0.5436329700
   55        0.0000000000
   56        0.0000000000
   57       -0.4496759600
   58       -0.2777376000
   59       -0.2777376000
   60       -0.0000000000
   61        0.0000000000
   62        0.0000000000
   63       -0.8192111600
   64       -1.0432871300
   65       -1.0432871300
   66       -0.0000000000
   67       -0.0000000000
   68       -0.0000000000
 Ene=          0.01495580
 Spin= Alpha
 Occup=        0.00000000
    1        0.6063473100
    2        3.8937414200
    3       -1.5669955300
    4        0.2364779100
    5        0.3493072900
    6       -0.0133013700
    7        0.0289294800
    8       -0.0169985000
    9       -0.0001191800
   10       -0.0001369100
   11        0.1971312400
   12       -0.0000000000
   13        0.0000000000
   14      -10.0362197200
   15       -0.0000000000
   16        0.0000000000
   17        2.2815564200
   18        0.0000000000
   19       -0.0000000000
   20       -1.1822281700
   21       -0.0000000000
   22        0.0000000000
   23       -0.0780469100
   24       -0.0815022300
   25       -0.0815022300
   26       -0.0000000000
   27        0.0000000000
   28       -0.0000000000
   29       -2.7753947000
   30       -0.3997845700
   31       -0.3997845700
   32       -0.0000000000
   33        0.0000000000
   34        0.0000000000
   35        0.6063473100
   36        3.8937414200
   37       -1.5669955300
   38        0.2364779100
   39        0.3493072900
   40       -0.0133013700
   41        0.0289294800
   42       -0.0169985000
   43       -0.0001191800
   44       -0.0001369100
   45       -0.1971312400
   46        0.0000000000
   47       -0.0000000000
   48       10.0362197200
   49        0.0000000000
   50       -0.0000000000
   51       -2.2815564200
   52       -0.0000000000
   53        0.0000000000
   54        1.1822281700
   55        0.0000000000
   56       -0.0000000000
   57       -0.0780469100
   58       -0.0815022300
   59       -0.0815022300
   60       -0.0000000000
   61        0.0000000000
   62        0.0000000000
   63       -2.7753947000
   64       -0.3997845700
   65       -0.3997845700
   66       -0.0000000000
   67        0.0000000000
   68       -0.0000000000
 Ene=          0.01503840
 Spin= Alpha
 Occup=        0.00000000
    1       -0.0000000000
    2        0.0000000000
    3       -0.0000000000
    4       -0.0000000000
    5        0.0000000000
    6       -0.0000000000
    7        0.0000000000
    8       -0.0000000000
    9        0.0000000000
   10       -0.0000000000
   11        0.0000000000
   12        0.4735701400
   13        0.2142301600
   14        0.0000000000
   15        8.8168591400
   16        3.9885056500