[Molden Format]
[Atoms] AU
E+       1       4     0.00000000     0.00000000     0.00000000
E+       2       4    22.20000000     0.00000000     0.00000000
[GTO]
  1 0
s  1 1.00
   1.0000000000E-04   1.0000000000E+00
s  1 1.00
   3.0000000000E-04   1.0000000000E+00
s  1 1.00
   9.0000000000E-04   1.0000000000E+00
s  1 1.00
   2.7000000000E-03   1.0000000000E+00
s  1 1.00
   8.1000000000E-03   1.0000000000E+00
s  1 1.00
   2.4300000000E-02   1.0000000000E+00
s  1 1.00
   7.2900000000E-02   1.0000000000E+00
s  1 1.00
   2.1870000000E-01   1.0000000000E+00
s  1 1.00
   6.5610000000E-01   1.0000000000E+00
s  1 1.00
   1.9683000000E+00   1.0000000000E+00
p  1 1.00
   1.0000000000E-04   1.0000000000E+00
p  1 1.00
   3.0000000000E-04   1.0000000000E+00
p  1 1.00
   9.0000000000E-04   1.0000000000E+00
p  1 1.00
   2.7000000000E-03   1.0000000000E+00
d  1 1.00
   1.0000000000E-04   1.0000000000E+00
d  1 1.00
   3.0000000000E-04   1.0000000000E+00
 
  2 0
s  1 1.00
   1.0000000000E-04   1.0000000000E+00
s  1 1.00
   3.0000000000E-04   1.0000000000E+00
s  1 1.00
   9.0000000000E-04   1.0000000000E+00
s  1 1.00
   2.7000000000E-03   1.0000000000E+00
s  1 1.00
   8.1000000000E-03   1.0000000000E+00
s  1 1.00
   2.4300000000E-02   1.0000000000E+00
s  1 1.00
   7.2900000000E-02   1.0000000000E+00
s  1 1.00
   2.1870000000E-01   1.0000000000E+00
s  1 1.00
   6.5610000000E-01   1.0000000000E+00
s  1 1.00
   1.9683000000E+00   1.0000000000E+00
p  1 1.00
   1.0000000000E-04   1.0000000000E+00
p  1 1.00
   3.0000000000E-04   1.0000000000E+00
p  1 1.00
   9.0000000000E-04   1.0000000000E+00
p  1 1.00
   2.7000000000E-03   1.0000000000E+00
d  1 1.00
   1.0000000000E-04   1.0000000000E+00
d  1 1.00
   3.0000000000E-04   1.0000000000E+00
 
 
[MO]
Ene=    -3.75308E-03
Spin= Alpha
Occup=   1.0000000000
   1      -0.02678361
   2       0.03543177
   3      -0.03715583
   4      -0.24252896
   5      -0.21165728
   6      -0.18393658
   7      -0.10981289
   8       0.09007600
   9       0.00632393
  10      -0.00011325
  11       0.11965325
  12      -0.00000000
  13      -0.00000000
  14      -0.06866912
  15      -0.00000000
  16      -0.00000000
  17      -0.00022686
  18      -0.00000000
  19       0.00000000
  20      -0.01354158
  21       0.00000000
  22      -0.00000000
  23       0.02358516
  24       0.00004422
  25       0.00004422
  26      -0.00000000
  27      -0.00000000
  28       0.00000000
  29      -0.02445379
  30      -0.00146621
  31      -0.00146621
  32      -0.00000000
  33      -0.00000000
  34      -0.00000000
  35      -0.02678361
  36       0.03543177
  37      -0.03715583
  38      -0.24252896
  39      -0.21165728
  40      -0.18393658
  41      -0.10981289
  42       0.09007600
  43       0.00632393
  44      -0.00011325
  45      -0.11965325
  46       0.00000000
  47       0.00000000
  48       0.06866912
  49       0.00000000
  50       0.00000000
  51       0.00022686
  52       0.00000000
  53       0.00000000
  54       0.01354158
  55      -0.00000000
  56       0.00000000
  57       0.02358516
  58       0.00004422
  59       0.00004422
  60      -0.00000000
  61      -0.00000000
  62      -0.00000000
  63      -0.02445379
  64      -0.00146621
  65      -0.00146621
  66      -0.00000000
  67      -0.00000000
  68       0.00000000
Ene=    -1.16026E-03
Spin= Alpha
Occup=   0.0000000000
   1      -0.00050449
   2       0.00181607
   3       0.55204504
   4       0.31913773
   5       0.25189704
   6       0.20640835
   7       0.11638007
   8      -0.09644006
   9      -0.00698694
  10       0.00014876
  11       0.00420766
  12       0.00000000
  13      -0.00000000
  14      -0.00606807
  15       0.00000000
  16       0.00000000
  17       0.17265588
  18       0.00000000
  19      -0.00000000
  20      -0.07431951
  21      -0.00000000
  22       0.00000000
  23       0.00169906
  24       0.01199989
  25       0.01199989
  26       0.00000000
  27      -0.00000000
  28      -0.00000000
  29       0.01169004
  30      -0.00433170
  31      -0.00433170
  32       0.00000000
  33       0.00000000
  34       0.00000000
  35       0.00050449
  36      -0.00181607
  37      -0.55204504
  38      -0.31913773
  39      -0.25189704
  40      -0.20640835
  41      -0.11638007
  42       0.09644006
  43       0.00698694
  44      -0.00014876
  45       0.00420766
  46      -0.00000000
  47       0.00000000
  48      -0.00606807
  49      -0.00000000
  50      -0.00000000
  51       0.17265588
  52      -0.00000000
  53       0.00000000
  54      -0.07431951
  55       0.00000000
  56      -0.00000000
  57      -0.00169906
  58      -0.01199989
  59      -0.01199989
  60       0.00000000
  61      -0.00000000
  62       0.00000000
  63      -0.01169004
  64       0.00433170
  65       0.00433170
  66       0.00000000
  67       0.00000000
  68      -0.00000000
Ene=     3.54844E-03
Spin= Alpha
Occup=   0.0000000000
   1      -0.92328718
   2       0.15936687
   3       1.15157151
   4      -0.85748571
   5       0.05323216
   6      -0.11950835
   7      -0.02613271
   8       0.02923663
   9       0.00342267
  10      -0.00022967
  11       3.55337023
  12      -0.00000000
  13       0.00000000
  14      -1.19146713
  15       0.00000000
  16      -0.00000000
  17       0.47015238
  18      -0.00000000
  19       0.00000000
  20      -0.09937789
  21       0.00000000
  22      -0.00000000
  23       0.70758369
  24       0.01878661
  25       0.01878661
  26      -0.00000000
  27       0.00000000
  28       0.00000000
  29      -0.28377265
  30       0.07664388
  31       0.07664388
  32       0.00000000
  33      -0.00000000
  34      -0.00000000
  35      -0.92328718
  36       0.15936687
  37       1.15157151
  38      -0.85748571
  39       0.05323216
  40      -0.11950835
  41      -0.02613271
  42       0.02923663
  43       0.00342267
  44      -0.00022967
  45      -3.55337023
  46       0.00000000
  47      -0.00000000
  48       1.19146713
  49      -0.00000000
  50       0.00000000
  51      -0.47015238
  52       0.00000000
  53      -0.00000000
  54       0.09937789
  55      -0.00000000
  56       0.00000000
  57       0.70758369
  58       0.01878661
  59       0.01878661
  60      -0.00000000
  61       0.00000000
  62      -0.00000000
  63      -0.28377265
  64       0.07664388
  65       0.07664388
  66       0.00000000
  67      -0.00000000
  68       0.00000000
Ene=     4.13417E-03
Spin= Alpha
Occup=   0.0000000000
   1       0.00000000
   2       0.00000000
   3      -0.00000000
   4       0.00000000
   5      -0.00000000
   6       0.00000000
   7      -0.00000000
   8       0.00000000
   9      -0.00000000
  10       0.00000000
  11      -0.00000000
  12      -0.02633872
  13      -0.01371026
  14      -0.00000000
  15       0.10218089
  16       0.05318887
  17      -0.00000000
  18      -0.42612694
  19      -0.22181459
  20       0.00000000
  21      -0.13646970
  22      -0.07103745
  23      -0.00000000
  24       0.00000000
  25       0.00000000
  26      -0.04144171
  27      -0.02157192
  28      -0.00000000
  29      -0.00000000
  30       0.00000000
  31       0.00000000
  32       0.00642138
  33       0.00334256
  34      -0.00000000
  35       0.00000000
  36       0.00000000
  37       0.00000000
  38      -0.00000000
  39       0.00000000
  40      -0.00000000
  41       0.00000000
  42      -0.00000000
  43       0.00000000
  44       0.00000000
  45       0.00000000
  46      -0.02633872
  47      -0.01371026
  48       0.00000000
  49       0.10218089
  50       0.05318887
  51      -0.00000000
  52      -0.42612694
  53      -0.22181459
  54       0.00000000
  55      -0.13646970
  56      -0.07103745
  57      -0.00000000
  58       0.00000000
  59      -0.00000000
  60       0.04144171
  61       0.02157192
  62       0.00000000
  63      -0.00000000
  64      -0.00000000
  65      -0.00000000
  66      -0.00642138
  67      -0.00334256
  68       0.00000000
Ene=     4.13417E-03
Spin= Alpha
Occup=   0.0000000000
   1      -0.00000000
   2       0.00000000
   3       0.00000000
   4      -0.00000000
   5      -0.00000000
   6      -0.00000000
   7      -0.00000000
   8       0.00000000
   9      -0.00000000
  10       0.00000000
  11       0.00000000
  12       0.01371026
  13      -0.02633872
  14      -0.00000000
  15      -0.05318887
  16       0.10218089
  17       0.00000000
  18       0.22181459
  19      -0.42612694
  20      -0.00000000
  21       0.07103745
  22      -0.13646970
  23       0.00000000
  24       0.00000000
  25       0.00000000
  26       0.02157192
  27      -0.04144171
  28       0.00000000
  29      -0.00000000
  30       0.00000000
  31       0.00000000
  32      -0.00334256
  33       0.00642138
  34      -0.00000000
  35      -0.00000000
  36       0.00000000
  37      -0.00000000
  38      -0.00000000
  39      -0.00000000
  40      -0.00000000
  41      -0.00000000
  42       0.00000000
  43      -0.00000000
  44       0.00000000
  45      -0.00000000
  46       0.01371026
  47      -0.02633872
  48       0.00000000
  49      -0.05318887
  50       0.10218089
  51       0.00000000
  52       0.22181459
  53      -0.42612694
  54      -0.00000000
  55       0.07103745
  56      -0.13646970
  57       0.00000000
  58      -0.00000000
  59      -0.00000000
  60      -0.02157192
  61       0.04144171
  62      -0.00000000
  63      -0.00000000
  64      -0.00000000
  65      -0.00000000
  66       0.00334256
  67      -0.00642138
  68       0.00000000
Ene=     6.02086E-03
Spin= Alpha
Occup=   0.0000000000
   1      -0.01485741
   2      -0.00271872
   3       6.45946209
   4      -0.44075955
   5      -0.33916050
   6      -0.06769183
   7      -0.07541198
   8       0.05513617
   9       0.00280148
  10       0.00009137
  11       0.12052148
  12       0.00000000
  13       0.00000000
  14       0.02187676
  15      -0.00000000
  16       0.00000000
  17       1.64982151
  18       0.00000000
  19      -0.00000000
  20      -0.21390200
  21       0.00000000
  22      -0.00000000
  23       0.15946333
  24       0.24595697
  25       0.24595697
  26       0.00000000
  27       0.00000000
  28       0.00000000
  29       0.38934517
  30       0.23951383
  31       0.23951383
  32      -0.00000000
  33       0.00000000
  34      -0.00000000
  35       0.01485741
  36       0.00271872
  37      -6.45946209
  38       0.44075955
  39       0.33916050
  40       0.06769183
  41       0.07541198
  42      -0.05513617
  43      -0.00280148
  44      -0.00009137
  45       0.12052148
  46      -0.00000000
  47      -0.00000000
  48       0.02187676
  49       0.00000000
  50      -0.00000000
  51       1.64982151
  52      -0.00000000
  53       0.00000000
  54      -0.21390200
  55      -0.00000000
  56       0.00000000
  57      -0.15946333
  58      -0.24595697
  59      -0.24595697
  60       0.00000000
  61       0.00000000
  62       0.00000000
  63      -0.38934517
  64      -0.23951383
  65      -0.23951383
  66      -0.00000000
  67       0.00000000
  68      -0.00000000
Ene=     6.81406E-03
Spin= Alpha
Occup=   0.0000000000
   1      -1.20201270
   2       0.76268645
   3       0.05764114
   4      -0.78073356
   5       0.26929233
   6      -0.03875821
   7       0.02594892
   8      -0.01299330
   9       0.00043067
  10      -0.00017704
  11       5.96177263
  12      -0.00000000
  13       0.00000000
  14      -1.68721563
  15       0.00000000
  16      -0.00000000
  17       0.54950240
  18      -0.00000000
  19       0.00000000
  20       0.54339081
  21      -0.00000000
  22       0.00000000
  23       1.13994224
  24      -0.01784729
  25      -0.01784729
  26      -0.00000000
  27       0.00000000
  28       0.00000000
  29      -0.58817808
  30      -0.07621276
  31      -0.07621276
  32       0.00000000
  33      -0.00000000
  34      -0.00000000
  35      -1.20201270
  36       0.76268645
  37       0.05764114
  38      -0.78073356
  39       0.26929233
  40      -0.03875821
  41       0.02594892
  42      -0.01299330
  43       0.00043067
  44      -0.00017704
  45      -5.96177263
  46       0.00000000
  47      -0.00000000
  48       1.68721563
  49      -0.00000000
  50       0.00000000
  51      -0.54950240
  52       0.00000000
  53      -0.00000000
  54      -0.54339081
  55       0.00000000
  56      -0.00000000
  57       1.13994224
  58      -0.01784729
  59      -0.01784729
  60      -0.00000000
  61       0.00000000
  62       0.00000000
  63      -0.58817808
  64      -0.07621276
  65      -0.07621276
  66       0.00000000
  67      -0.00000000
  68       0.00000000
Ene=     7.10928E-03
Spin= Alpha
Occup=   0.0000000000
   1      -0.00000000
   2      -0.00000000
   3       0.00000000
   4      -0.00000000
   5       0.00000000
   6      -0.00000000
   7       0.00000000
   8      -0.00000000
   9       0.00000000
  10      -0.00000000
  11      -0.00000000
  12      12.36843570
  13      -5.87769023
  14      -0.00000000
  15      -2.74896805
  16       1.30635620
  17       0.00000000
  18       0.78399215
  19      -0.37256635
  20       0.00000000
  21       0.57457076
  22      -0.27304576
  23      -0.00000000
  24      -0.00000000
  25      -0.00000000
  26       1.37036900
  27      -0.65122257
  28      -0.00000000
  29      -0.00000000
  30       0.00000000
  31       0.00000000
  32      -0.47227281
  33       0.22443204
  34       0.00000000
  35       0.00000000
  36       0.00000000
  37      -0.00000000
  38      -0.00000000
  39       0.00000000
  40      -0.00000000
  41       0.00000000
  42      -0.00000000
  43       0.00000000
  44      -0.00000000
  45       0.00000000
  46     -12.36843570
  47       5.87769023
  48      -0.00000000
  49       2.74896805
  50      -1.30635620
  51       0.00000000
  52      -0.78399215
  53       0.37256635
  54      -0.00000000
  55      -0.57457076
  56       0.27304576
  57      -0.00000000
  58       0.00000000
  59       0.00000000
  60       1.37036900
  61      -0.65122257
  62       0.00000000
  63       0.00000000
  64       0.00000000
  65       0.00000000
  66      -0.47227281
  67       0.22443204
  68      -0.00000000
Ene=     7.10928E-03
Spin= Alpha
Occup=   0.0000000000
   1      -0.00000000
   2      -0.00000000
   3       0.00000000
   4       0.00000000
   5      -0.00000000
   6       0.00000000
   7      -0.00000000
   8       0.00000000
   9       0.00000000
  10      -0.00000000
  11      -0.00000000
  12      -5.87769023
  13     -12.36843570
  14      -0.00000000
  15       1.30635620
  16       2.74896805
  17       0.00000000
  18      -0.37256635
  19      -0.78399215
  20      -0.00000000
  21      -0.27304576
  22      -0.57457076
  23      -0.00000000
  24      -0.00000000
  25      -0.00000000
  26      -0.65122257
  27      -1.37036900
  28       0.00000000
  29      -0.00000000
  30      -0.00000000
  31      -0.00000000
  32       0.22443204
  33       0.47227281
  34      -0.00000000
  35       0.00000000
  36       0.00000000
  37      -0.00000000
  38       0.00000000
  39       0.00000000
  40       0.00000000
  41       0.00000000
  42      -0.00000000
  43      -0.00000000
  44      -0.00000000
  45      -0.00000000
  46       5.87769023
  47      12.36843570
  48      -0.00000000
  49      -1.30635620
  50      -2.74896805
  51       0.00000000
  52       0.37256635
  53       0.78399215
  54       0.00000000
  55       0.27304576
  56       0.57457076
  57       0.00000000
  58       0.00000000
  59       0.00000000
  60      -0.65122257
  61      -1.37036900
  62      -0.00000000
  63       0.00000000
  64      -0.00000000
  65      -0.00000000
  66       0.22443204
  67       0.47227281
  68       0.00000000
Ene=     1.04998E-02
Spin= Alpha
Occup=   0.0000000000
   1       0.00000000
   2       0.00000000
   3      -0.00000000
   4      -0.00000000
   5       0.00000000
   6      -0.00000000
   7      -0.00000000
   8       0.00000000
   9       0.00000000
  10      -0.00000000
  11      -0.00000000
  12       0.03679329
  13       0.02071607
  14      -0.00000000
  15      -0.14215831
  16      -0.08004072
  17      -0.00000000
  18       0.69807819
  19       0.39304546
  20      -0.00000000
  21      -0.75901705
  22      -0.42735643
  23      -0.00000000
  24      -0.00000000
  25      -0.00000000
  26       0.04453692
  27       0.02507604
  28      -0.00000000
  29      -0.00000000
  30       0.00000000
  31       0.00000000
  32       0.00466611
  33       0.00262720
  34       0.00000000
  35       0.00000000
  36       0.00000000
  37       0.00000000
  38       0.00000000
  39       0.00000000
  40       0.00000000
  41       0.00000000
  42      -0.00000000
  43       0.00000000
  44      -0.00000000
  45       0.00000000
  46       0.03679329
  47       0.02071607
  48       0.00000000
  49      -0.14215831
  50      -0.08004072
  51      -0.00000000
  52       0.69807819
  53       0.39304546
  54      -0.00000000
  55      -0.75901705
  56      -0.42735643
  57      -0.00000000
  58       0.00000000
  59       0.00000000
  60      -0.04453692
  61      -0.02507604
  62       0.00000000
  63      -0.00000000
  64      -0.00000000
  65      -0.00000000
  66      -0.00466611
  67      -0.00262720
  68      -0.00000000
Ene=     1.04998E-02
Spin= Alpha
Occup=   0.0000000000
   1       0.00000000
   2      -0.00000000
   3       0.00000000
   4       0.00000000
   5       0.00000000
   6       0.00000000
   7       0.00000000
   8      -0.00000000
   9      -0.00000000
  10       0.00000000
  11      -0.00000000
  12       0.02071607
  13      -0.03679329
  14       0.00000000
  15      -0.08004072
  16       0.14215831
  17       0.00000000
  18       0.39304546
  19      -0.69807819
  20       0.00000000
  21      -0.42735643
  22       0.75901705
  23      -0.00000000
  24       0.00000000
  25       0.00000000
  26       0.02507603
  27      -0.04453692
  28      -0.00000000
  29       0.00000000
  30       0.00000000
  31       0.00000000
  32       0.00262720
  33      -0.00466611
  34      -0.00000000
  35       0.00000000
  36      -0.00000000
  37      -0.00000000
  38      -0.00000000
  39      -0.00000000
  40      -0.00000000
  41      -0.00000000
  42       0.00000000
  43       0.00000000
  44       0.00000000
  45       0.00000000
  46       0.02071607
  47      -0.03679329
  48      -0.00000000
  49      -0.08004072
  50       0.14215831
  51       0.00000000
  52       0.39304546
  53      -0.69807819
  54       0.00000000
  55      -0.42735643
  56       0.75901705
  57      -0.00000000
  58      -0.00000000
  59      -0.00000000
  60      -0.02507604
  61       0.04453692
  62      -0.00000000
  63       0.00000000
  64       0.00000000
  65       0.00000000
  66      -0.00262720
  67       0.00466611
  68       0.00000000
Ene=     1.06132E-02
Spin= Alpha
Occup=   0.0000000000
   1      -0.00758341
   2       0.04010733
   3      12.21091984
   4       1.08870201
   5       0.02478222
   6       0.04692482
   7       0.01659930
   8      -0.01554606
   9      -0.00145995
  10       0.00006884
  11       0.06323712
  12       0.00000000
  13       0.00000000
  14      -0.12108316
  15      -0.00000000
  16       0.00000000
  17       3.78323142
  18       0.00000000
  19      -0.00000000
  20       2.04827815
  21      -0.00000000
  22      -0.00000000
  23       0.00317227
  24       0.19996170
  25       0.19996170
  26       0.00000000
  27       0.00000000
  28       0.00000000
  29       0.17216863
  30      -0.12794847
  31      -0.12794847
  32      -0.00000000
  33       0.00000000
  34       0.00000000
  35       0.00758341
  36      -0.04010733
  37     -12.21091984
  38      -1.08870201
  39      -0.02478222
  40      -0.04692482
  41      -0.01659930
  42       0.01554606
  43       0.00145995
  44      -0.00006884
  45       0.06323712
  46      -0.00000000
  47      -0.00000000
  48      -0.12108316
  49       0.00000000
  50      -0.00000000
  51       3.78323142
  52      -0.00000000
  53       0.00000000
  54       2.04827815
  55       0.00000000
  56      -0.00000000
  57      -0.00317227
  58      -0.19996170
  59      -0.19996170
  60       0.00000000
  61       0.00000000
  62      -0.00000000
  63      -0.17216863
  64       0.12794847
  65       0.12794847
  66      -0.00000000
  67       0.00000000
  68      -0.00000000
Ene=     1.31841E-02
Spin= Alpha
Occup=   0.0000000000
   1      -0.69437322
   2       0.63495002
   3       0.02416047
   4      -1.52925545
   5       1.27860467
   6      -0.08985662
   7       0.14206355
   8      -0.08163041
   9      -0.00012257
  10      -0.00071456
  11       5.31760473
  12      -0.00000000
  13      -0.00000000
  14      -0.60072970
  15       0.00000000
  16      -0.00000000
  17       0.62845615
  18      -0.00000000
  19       0.00000000
  20      -0.36503525
  21       0.00000000
  22      -0.00000000
  23       0.95735382
  24      -0.07154362
  25      -0.07154362
  26      -0.00000000
  27      -0.00000000
  28       0.00000000
  29      -0.38373886
  30      -0.24054429
  31      -0.24054429
  32       0.00000000
  33      -0.00000000
  34      -0.00000000
  35      -0.69437322
  36       0.63495002
  37       0.02416047
  38      -1.52925545
  39       1.27860467
  40      -0.08985662
  41       0.14206355
  42      -0.08163041
  43      -0.00012257
  44      -0.00071456
  45      -5.31760473
  46       0.00000000
  47       0.00000000
  48       0.60072970
  49      -0.00000000
  50       0.00000000
  51      -0.62845615
  52       0.00000000
  53      -0.00000000
  54       0.36503525
  55      -0.00000000
  56       0.00000000
  57       0.95735382
  58      -0.07154362
  59      -0.07154362
  60      -0.00000000
  61      -0.00000000
  62      -0.00000000
  63      -0.38373886
  64      -0.24054429
  65      -0.24054429
  66       0.00000000
  67      -0.00000000
  68       0.00000000
Ene=     1.57025E-02
Spin= Alpha
Occup=   0.0000000000
   1      -0.00000000
   2      -0.00000000
   3      -0.00000000
   4       0.00000000
   5      -0.00000000
   6       0.00000000
   7      -0.00000000
   8       0.00000000
   9      -0.00000000
  10       0.00000000
  11      -0.00000000
  12      -6.19503651
  13     -29.23112594
  14      -0.00000000
  15       1.30934344
  16       6.17810452
  17       0.00000000
  18      -0.48715556
  19      -2.29863143
  20       0.00000000
  21       0.25309772
  22       1.19423533
  23      -0.00000000
  24      -0.00000000
  25      -0.00000000
  26      -0.68609299
  27      -3.23731274
  28       0.00000000
  29      -0.00000000
  30      -0.00000000
  31      -0.00000000
  32       0.22185841
  33       1.04683341
  34      -0.00000000
  35       0.00000000
  36       0.00000000
  37       0.00000000
  38      -0.00000000
  39       0.00000000
  40      -0.00000000
  41       0.00000000
  42      -0.00000000
  43       0.00000000
  44      -0.00000000
  45      -0.00000000
  46       6.19503651
  47      29.23112594
  48      -0.00000000
  49      -1.30934344
  50      -6.17810452
  51       0.00000000
  52       0.48715556
  53       2.29863143
  54       0.00000000
  55      -0.25309772
  56      -1.19423533
  57       0.00000000
  58       0.00000000
  59       0.00000000
  60      -0.68609299
  61      -3.23731274
  62      -0.00000000
  63       0.00000000
  64       0.00000000
  65       0.00000000
  66       0.22185841
  67       1.04683341
  68       0.00000000
Ene=     1.57025E-02
Spin= Alpha
Occup=   0.0000000000
   1       0.00000000
   2       0.00000000
   3      -0.00000000
   4      -0.00000000
   5       0.00000000
   6       0.00000000
   7       0.00000000
   8      -0.00000000
   9      -0.00000000
  10      -0.00000000
  11       0.00000000
  12     -29.23112594
  13       6.19503651
  14       0.00000000
  15       6.17810452
  16      -1.30934344
  17       0.00000000
  18      -2.29863143
  19       0.48715556
  20      -0.00000000
  21       1.19423533
  22      -0.25309772
  23       0.00000000
  24      -0.00000000
  25      -0.00000000
  26      -3.23731274
  27       0.68609299
  28       0.00000000
  29       0.00000000
  30      -0.00000000
  31      -0.00000000
  32       1.04683341
  33      -0.22185841
  34      -0.00000000
  35      -0.00000000
  36      -0.00000000
  37      -0.00000000
  38       0.00000000
  39      -0.00000000
  40       0.00000000
  41      -0.00000000
  42       0.00000000
  43      -0.00000000
  44       0.00000000
  45      -0.00000000
  46      29.23112594
  47      -6.19503651
  48       0.00000000
  49      -6.17810452
  50       1.30934344
  51      -0.00000000
  52       2.29863143
  53      -0.48715556
  54       0.00000000
  55      -1.19423533
  56       0.25309772
  57       0.00000000
  58      -0.00000000
  59      -0.00000000
  60      -3.23731274
  61       0.68609299
  62      -0.00000000
  63      -0.00000000
  64      -0.00000000
  65      -0.00000000
  66       1.04683341
  67      -0.22185841
  68       0.00000000
Ene=     1.58611E-02
Spin= Alpha
Occup=   0.0000000000
   1       0.01636718
   2       0.05408244
   3      -0.97039250
   4       3.54227154
   5      -1.31342879
   6       0.11174690
   7      -0.12071733
   8       0.06598900
   9      -0.00062874
  10       0.00068218
  11      -0.13022348
  12       0.00000000
  13      -0.00000000
  14      -0.22189970
  15       0.00000000
  16      -0.00000000
  17       0.74574288
  18      -0.00000000
  19       0.00000000
  20       0.70341183
  21       0.00000000
  22      -0.00000000
  23      -0.25265745
  24      -0.18711720
  25      -0.18711720
  26       0.00000000
  27      -0.00000000
  28       0.00000000
  29      -0.51452527
  30      -0.57262248
  31      -0.57262248
  32       0.00000000
  33      -0.00000000
  34      -0.00000000
  35      -0.01636718
  36      -0.05408244
  37       0.97039250
  38      -3.54227154
  39       1.31342879
  40      -0.11174690
  41       0.12071733
  42      -0.06598900
  43       0.00062874
  44      -0.00068218
  45      -0.13022348
  46      -0.00000000
  47       0.00000000
  48      -0.22189970
  49      -0.00000000
  50       0.00000000
  51       0.74574288
  52       0.00000000
  53      -0.00000000
  54       0.70341183
  55      -0.00000000
  56       0.00000000
  57       0.25265745
  58       0.18711720
  59       0.18711720
  60       0.00000000
  61      -0.00000000
  62      -0.00000000
  63       0.51452527
  64       0.57262248
  65       0.57262248
  66       0.00000000
  67      -0.00000000
  68      -0.00000000
Ene=     1.62585E-02
Spin= Alpha
Occup=   0.0000000000
   1      -3.74459417
   2       2.92722390
   3      -1.82523882
   4       1.08003823
   5      -0.40071223
   6       0.03086303
   7      -0.03333955
   8       0.01865780
   9      -0.00002906
  10       0.00017155
  11      19.32079573
  12      -0.00000000
  13       0.00000000
  14      -5.35942835
  15       0.00000000
  16      -0.00000000
  17       1.77418330
  18       0.00000000
  19      -0.00000000
  20      -0.78080008
  21      -0.00000000
  22       0.00000000
  23       3.67713684
  24      -0.07884807
  25      -0.07884807
  26      -0.00000000
  27       0.00000000
  28      -0.00000000
  29      -1.99910099
  30      -0.36669926
  31      -0.36669926
  32       0.00000000
  33      -0.00000000
  34      -0.00000000
  35      -3.74459417
  36       2.92722390
  37      -1.82523882
  38       1.08003823
  39      -0.40071223
  40       0.03086303
  41      -0.03333955
  42       0.01865780
  43      -0.00002906
  44       0.00017155
  45     -19.32079573
  46       0.00000000
  47      -0.00000000
  48       5.35942835
  49      -0.00000000
  50       0.00000000
  51      -1.77418330
  52      -0.00000000
  53       0.00000000
  54       0.78080008
  55       0.00000000
  56      -0.00000000
  57       3.67713684
  58      -0.07884807
  59      -0.07884807
  60      -0.00000000
  61       0.00000000
  62       0.00000000
  63      -1.99910099
  64      -0.36669926
  65      -0.36669926
  66       0.00000000
  67      -0.00000000
  68       0.00000000
Ene=     2.24566E-02
Spin= Alpha
Occup=   0.0000000000
   1       0.05655695
   2       0.23450998
   3      23.65128398
   4      -4.24993105
   5       0.87520629
   6      -0.11507818
   7       0.05816448
   8      -0.02577680
   9       0.00166135
  10      -0.00046765
  11      -0.45002562
  12      -0.00000000
  13       0.00000000
  14      -0.78418294
  15      -0.00000000
  16      -0.00000000
  17       9.96176644
  18       0.00000000
  19       0.00000000
  20      -2.57087419
  21       0.00000000
  22       0.00000000
  23      -1.03091732
  24      -0.58292506
  25      -0.58292506
  26      -0.00000000
  27       0.00000000
  28      -0.00000000
  29      -1.62080998
  30      -2.17775293
  31      -2.17775293
  32      -0.00000000
  33      -0.00000000
  34       0.00000000
  35      -0.05655695
  36      -0.23450998
  37     -23.65128398
  38       4.24993105
  39      -0.87520629
  40       0.11507818
  41      -0.05816448
  42       0.02577680
  43      -0.00166135
  44       0.00046765
  45      -0.45002562
  46       0.00000000
  47      -0.00000000
  48      -0.78418294
  49       0.00000000
  50       0.00000000
  51       9.96176644
  52      -0.00000000
  53      -0.00000000
  54      -2.57087419
  55      -0.00000000
  56      -0.00000000
  57       1.03091732
  58       0.58292506
  59       0.58292506
  60      -0.00000000
  61       0.00000000
  62       0.00000000
  63       1.62080998
  64       2.17775293
  65       2.17775293
  66      -0.00000000
  67      -0.00000000
  68      -0.00000000
Ene=     2.82302E-02
Spin= Alpha
Occup=   0.0000000000
   1       4.57579608
   2       1.17349825
   3      -4.65508468
   4       2.27616651
   5      -0.60908022
   6      -0.12541916
   7      -0.03366405
   8       0.03437322
   9       0.00371316
  10      -0.00021104
  11      -6.11403131
  12       0.00000000