 Molden2AIM, Version 3.1.0 (02/25/2015)           Time: Thu Oct 17 19:52:20 2024
GAUSSIAN             68 MOL ORBITALS     68 PRIMITIVES        2 NUCLEI
  Be   1    (CENTRE  1)   0.00000000  0.00000000  0.00000000  CHARGE =  4.0
  Be   2    (CENTRE  2)   6.00000000  0.00000000  0.00000000  CHARGE =  4.0
CENTRE ASSIGNMENTS    1  1  1  1  1  1  1  1  1  1  1  1  1  1  1  1  1  1  1  1
CENTRE ASSIGNMENTS    1  1  1  1  1  1  1  1  1  1  1  1  1  1  2  2  2  2  2  2
CENTRE ASSIGNMENTS    2  2  2  2  2  2  2  2  2  2  2  2  2  2  2  2  2  2  2  2
CENTRE ASSIGNMENTS    2  2  2  2  2  2  2  2
TYPE ASSIGNMENTS      1  1  1  1  1  1  1  1  1  1  2  3  4  2  3  4  2  3  4  2
TYPE ASSIGNMENTS      3  4  5  6  7  8  9 10  5  6  7  8  9 10  1  1  1  1  1  1
TYPE ASSIGNMENTS      1  1  1  1  2  3  4  2  3  4  2  3  4  2  3  4  5  6  7  8
TYPE ASSIGNMENTS      9 10  5  6  7  8  9 10
EXPONENTS  0.1000000D-03 0.3000000D-03 0.9000000D-03 0.2700000D-02 0.8100000D-02
EXPONENTS  0.2430000D-01 0.7290000D-01 0.2187000D+00 0.6561000D+00 0.1968300D+01
EXPONENTS  0.1000000D-03 0.1000000D-03 0.1000000D-03 0.3000000D-03 0.3000000D-03
EXPONENTS  0.3000000D-03 0.9000000D-03 0.9000000D-03 0.9000000D-03 0.2700000D-02
EXPONENTS  0.2700000D-02 0.2700000D-02 0.1000000D-03 0.1000000D-03 0.1000000D-03
EXPONENTS  0.1000000D-03 0.1000000D-03 0.1000000D-03 0.3000000D-03 0.3000000D-03
EXPONENTS  0.3000000D-03 0.3000000D-03 0.3000000D-03 0.3000000D-03 0.1000000D-03
EXPONENTS  0.3000000D-03 0.9000000D-03 0.2700000D-02 0.8100000D-02 0.2430000D-01
EXPONENTS  0.7290000D-01 0.2187000D+00 0.6561000D+00 0.1968300D+01 0.1000000D-03
EXPONENTS  0.1000000D-03 0.1000000D-03 0.3000000D-03 0.3000000D-03 0.3000000D-03
EXPONENTS  0.9000000D-03 0.9000000D-03 0.9000000D-03 0.2700000D-02 0.2700000D-02
EXPONENTS  0.2700000D-02 0.1000000D-03 0.1000000D-03 0.1000000D-03 0.1000000D-03
EXPONENTS  0.1000000D-03 0.1000000D-03 0.3000000D-03 0.3000000D-03 0.3000000D-03
EXPONENTS  0.3000000D-03 0.3000000D-03 0.3000000D-03
MO    1     MO 0.0        OCC NO =    1.0000000  ORB. ENERGY =   -0.019045
  0.19275547D-05  0.94235105D-05 -0.28189497D-04 -0.23147901D-03 -0.30237707D-02
 -0.12004920D-01 -0.24070980D-01  0.39592215D-01  0.46448609D-02  0.23484395D-03
  0.28250219D-08 -0.00000000D+00  0.00000000D+00  0.39048197D-07 -0.00000000D+00
  0.00000000D+00  0.78014760D-05 -0.00000000D+00  0.00000000D+00 -0.32968172D-04
  0.00000000D+00 -0.00000000D+00 -0.13624620D-09 -0.24181897D-10 -0.24181897D-10
 -0.00000000D+00  0.00000000D+00 -0.00000000D+00 -0.43616877D-09 -0.26982448D-08
 -0.26982448D-08  0.00000000D+00 -0.00000000D+00  0.00000000D+00  0.19275547D-05
  0.94235105D-05 -0.28189497D-04 -0.23147901D-03 -0.30237707D-02 -0.12004920D-01
 -0.24070980D-01  0.39592215D-01  0.46448609D-02  0.23484395D-03 -0.28250219D-08
  0.00000000D+00 -0.00000000D+00 -0.39048197D-07  0.00000000D+00  0.00000000D+00
 -0.78014760D-05  0.00000000D+00  0.00000000D+00  0.32968172D-04 -0.00000000D+00
  0.00000000D+00 -0.13624620D-09 -0.24181897D-10 -0.24181897D-10  0.00000000D+00
 -0.00000000D+00  0.00000000D+00 -0.43616877D-09 -0.26982448D-08 -0.26982448D-08
 -0.00000000D+00  0.00000000D+00 -0.00000000D+00
MO    2     MO 0.0        OCC NO =    0.0000000  ORB. ENERGY =    0.002162
  0.98310300D-04  0.51569486D-03 -0.40997590D-02  0.45038928D-02 -0.21602174D-02
  0.46856742D-02  0.89303798D-03 -0.36715150D-02 -0.13668125D-02  0.28166114D-03
  0.13067754D-06  0.00000000D+00  0.00000000D+00  0.23235242D-05 -0.00000000D+00
  0.00000000D+00  0.44885336D-05  0.00000000D+00  0.00000000D+00 -0.49930628D-04
  0.00000000D+00  0.00000000D+00 -0.31799574D-08 -0.30448847D-08 -0.30448847D-08
 -0.00000000D+00 -0.00000000D+00 -0.00000000D+00 -0.98886397D-07 -0.10664835D-06
 -0.10664835D-06  0.00000000D+00  0.00000000D+00  0.00000000D+00  0.98310300D-04
  0.51569486D-03 -0.40997590D-02  0.45038928D-02 -0.21602174D-02  0.46856742D-02
  0.89303798D-03 -0.36715150D-02 -0.13668125D-02  0.28166114D-03 -0.13067754D-06
 -0.00000000D+00 -0.00000000D+00 -0.23235242D-05 -0.00000000D+00 -0.00000000D+00
 -0.44885336D-05 -0.00000000D+00 -0.00000000D+00  0.49930628D-04  0.00000000D+00
 -0.00000000D+00 -0.31799574D-08 -0.30448847D-08 -0.30448847D-08  0.00000000D+00
  0.00000000D+00  0.00000000D+00 -0.98886397D-07 -0.10664835D-06 -0.10664835D-06
 -0.00000000D+00 -0.00000000D+00 -0.00000000D+00
MO    3     MO 0.0        OCC NO =    0.0000000  ORB. ENERGY =    0.002895
 -0.40270852D-05 -0.17630833D-04 -0.10572121D-02 -0.42732344D-01  0.66326929D-02
  0.96185336D-03  0.40561886D-02 -0.56350555D-02 -0.43861448D-04 -0.23200152D-03
  0.24194925D-05 -0.00000000D+00  0.00000000D+00  0.82588947D-05 -0.00000000D+00
  0.00000000D+00 -0.16931621D-03  0.00000000D+00 -0.00000000D+00 -0.64829724D-03
  0.00000000D+00  0.00000000D+00  0.17609775D-06  0.17183315D-06  0.17183315D-06
 -0.00000000D+00  0.00000000D+00 -0.00000000D+00  0.22901183D-05  0.23211334D-05
  0.23211334D-05 -0.00000000D+00  0.00000000D+00  0.00000000D+00  0.40270852D-05
  0.17630833D-04  0.10572121D-02  0.42732344D-01 -0.66326929D-02 -0.96185336D-03
 -0.40561886D-02  0.56350555D-02  0.43861448D-04  0.23200152D-03  0.24194925D-05
  0.00000000D+00 -0.00000000D+00  0.82588947D-05  0.00000000D+00 -0.00000000D+00
 -0.16931621D-03 -0.00000000D+00  0.00000000D+00 -0.64829724D-03 -0.00000000D+00
 -0.00000000D+00 -0.17609775D-06 -0.17183315D-06 -0.17183315D-06 -0.00000000D+00
  0.00000000D+00  0.00000000D+00 -0.22901183D-05 -0.23211334D-05 -0.23211334D-05
 -0.00000000D+00  0.00000000D+00 -0.00000000D+00
MO    4     MO 0.0        OCC NO =    0.0000000  ORB. ENERGY =    0.003436
  0.00000000D+00 -0.00000000D+00 -0.00000000D+00 -0.00000000D+00  0.00000000D+00
 -0.00000000D+00 -0.00000000D+00  0.00000000D+00  0.00000000D+00 -0.00000000D+00
  0.00000000D+00  0.34156096D-06  0.16131304D-06 -0.00000000D+00 -0.60161693D-05
 -0.28413276D-05 -0.00000000D+00  0.11458036D-03  0.54114231D-04 -0.00000000D+00
  0.81475892D-05  0.38479574D-05 -0.00000000D+00 -0.00000000D+00 -0.00000000D+00
  0.72362557D-07  0.34175527D-07 -0.00000000D+00 -0.00000000D+00 -0.00000000D+00
 -0.00000000D+00 -0.29574388D-06 -0.13967448D-06 -0.00000000D+00 -0.00000000D+00
 -0.00000000D+00  0.00000000D+00  0.00000000D+00 -0.00000000D+00  0.00000000D+00
  0.00000000D+00 -0.00000000D+00  0.00000000D+00 -0.00000000D+00 -0.00000000D+00
  0.34156096D-06  0.16131304D-06  0.00000000D+00 -0.60161693D-05 -0.28413276D-05
  0.00000000D+00  0.11458036D-03  0.54114231D-04 -0.00000000D+00  0.81475892D-05
  0.38479574D-05  0.00000000D+00  0.00000000D+00  0.00000000D+00 -0.72362557D-07
 -0.34175527D-07  0.00000000D+00  0.00000000D+00  0.00000000D+00  0.00000000D+00
  0.29574388D-06  0.13967448D-06  0.00000000D+00
MO    5     MO 0.0        OCC NO =    0.0000000  ORB. ENERGY =    0.003436
 -0.00000000D+00 -0.00000000D+00  0.00000000D+00  0.00000000D+00 -0.00000000D+00
  0.00000000D+00 -0.00000000D+00  0.00000000D+00 -0.00000000D+00  0.00000000D+00
  0.00000000D+00  0.16131304D-06 -0.34156096D-06  0.00000000D+00 -0.28413276D-05
  0.60161693D-05  0.00000000D+00  0.54114231D-04 -0.11458036D-03  0.00000000D+00
  0.38479574D-05 -0.81475892D-05  0.00000000D+00  0.00000000D+00  0.00000000D+00
  0.34175527D-07 -0.72362557D-07 -0.00000000D+00  0.00000000D+00  0.00000000D+00
  0.00000000D+00 -0.13967448D-06  0.29574388D-06  0.00000000D+00  0.00000000D+00
  0.00000000D+00 -0.00000000D+00 -0.00000000D+00  0.00000000D+00 -0.00000000D+00
  0.00000000D+00 -0.00000000D+00  0.00000000D+00 -0.00000000D+00 -0.00000000D+00
  0.16131304D-06 -0.34156096D-06 -0.00000000D+00 -0.28413276D-05  0.60161693D-05
  0.00000000D+00  0.54114231D-04 -0.11458036D-03  0.00000000D+00  0.38479574D-05
 -0.81475892D-05 -0.00000000D+00 -0.00000000D+00 -0.00000000D+00 -0.34175527D-07
  0.72362557D-07  0.00000000D+00 -0.00000000D+00 -0.00000000D+00 -0.00000000D+00
  0.13967448D-06 -0.29574388D-06 -0.00000000D+00
MO    6     MO 0.0        OCC NO =    0.0000000  ORB. ENERGY =    0.006633
 -0.00000000D+00 -0.00000000D+00 -0.00000000D+00 -0.00000000D+00  0.00000000D+00
 -0.00000000D+00 -0.00000000D+00  0.00000000D+00  0.00000000D+00 -0.00000000D+00
  0.00000000D+00  0.94960877D-09 -0.98856525D-08 -0.00000000D+00 -0.99145638D-08
  0.10322132D-06 -0.00000000D+00  0.10734885D-03 -0.11176084D-02 -0.00000000D+00
  0.74521694D-04 -0.77584507D-03 -0.00000000D+00 -0.00000000D+00 -0.00000000D+00
 -0.97593326D-09  0.10160440D-07  0.00000000D+00 -0.00000000D+00  0.00000000D+00
  0.00000000D+00  0.19744499D-07 -0.20555981D-06 -0.00000000D+00 -0.00000000D+00
 -0.00000000D+00  0.00000000D+00  0.00000000D+00 -0.00000000D+00  0.00000000D+00
 -0.00000000D+00  0.00000000D+00 -0.00000000D+00  0.00000000D+00 -0.00000000D+00
 -0.94960877D-09  0.98856525D-08  0.00000000D+00  0.99145638D-08 -0.10322132D-06
  0.00000000D+00 -0.10734885D-03  0.11176084D-02 -0.00000000D+00 -0.74521694D-04
  0.77584507D-03  0.00000000D+00  0.00000000D+00  0.00000000D+00 -0.97593326D-09
  0.10160440D-07 -0.00000000D+00  0.00000000D+00  0.00000000D+00  0.00000000D+00
  0.19744499D-07 -0.20555981D-06  0.00000000D+00
MO    7     MO 0.0        OCC NO =    0.0000000  ORB. ENERGY =    0.006633
 -0.00000000D+00 -0.00000000D+00  0.00000000D+00 -0.00000000D+00  0.00000000D+00
 -0.00000000D+00 -0.00000000D+00  0.00000000D+00 -0.00000000D+00  0.00000000D+00
 -0.00000000D+00  0.98856525D-08  0.94960877D-09 -0.00000000D+00 -0.10322132D-06
 -0.99145638D-08 -0.00000000D+00  0.11176084D-02  0.10734885D-03 -0.00000000D+00
  0.77584507D-03  0.74521694D-04 -0.00000000D+00 -0.00000000D+00 -0.00000000D+00
 -0.10160440D-07 -0.97593326D-09 -0.00000000D+00 -0.00000000D+00  0.00000000D+00
  0.00000000D+00  0.20555981D-06  0.19744499D-07  0.00000000D+00 -0.00000000D+00
 -0.00000000D+00  0.00000000D+00  0.00000000D+00 -0.00000000D+00  0.00000000D+00
 -0.00000000D+00  0.00000000D+00 -0.00000000D+00  0.00000000D+00  0.00000000D+00
 -0.98856525D-08 -0.94960877D-09  0.00000000D+00  0.10322132D-06  0.99145638D-08
  0.00000000D+00 -0.11176084D-02 -0.10734885D-03  0.00000000D+00 -0.77584507D-03
 -0.74521694D-04  0.00000000D+00  0.00000000D+00  0.00000000D+00 -0.10160440D-07
 -0.97593326D-09  0.00000000D+00  0.00000000D+00  0.00000000D+00  0.00000000D+00
  0.20555981D-06  0.19744499D-07 -0.00000000D+00
MO    8     MO 0.0        OCC NO =    0.0000000  ORB. ENERGY =    0.006671
  0.18998325D-03  0.88937214D-03 -0.18409186D-02 -0.41341242D-02 -0.74038396D-04
  0.16297608D-03  0.30077434D-03 -0.45508000D-03  0.31397149D-04 -0.32143148D-04
  0.27046132D-06 -0.00000000D+00  0.00000000D+00  0.38642183D-05 -0.00000000D+00
  0.00000000D+00  0.94086860D-03  0.00000000D+00 -0.00000000D+00  0.72306507D-03
  0.00000000D+00 -0.00000000D+00 -0.11714436D-07 -0.34113889D-08 -0.34113889D-08
 -0.00000000D+00  0.00000000D+00  0.00000000D+00 -0.66329518D-07 -0.24481346D-06
 -0.24481346D-06  0.00000000D+00 -0.00000000D+00 -0.00000000D+00  0.18998325D-03
  0.88937214D-03 -0.18409186D-02 -0.41341242D-02 -0.74038396D-04  0.16297608D-03
  0.30077434D-03 -0.45508000D-03  0.31397149D-04 -0.32143148D-04 -0.27046132D-06
  0.00000000D+00 -0.00000000D+00 -0.38642183D-05  0.00000000D+00 -0.00000000D+00
 -0.94086860D-03 -0.00000000D+00  0.00000000D+00 -0.72306507D-03 -0.00000000D+00
  0.00000000D+00 -0.11714436D-07 -0.34113889D-08 -0.34113889D-08 -0.00000000D+00
  0.00000000D+00 -0.00000000D+00 -0.66329518D-07 -0.24481346D-06 -0.24481346D-06
  0.00000000D+00 -0.00000000D+00  0.00000000D+00
MO    9     MO 0.0        OCC NO =    0.0000000  ORB. ENERGY =    0.007074
 -0.37924982D-05 -0.17904288D-04 -0.23233513D-03 -0.20614234D-01 -0.32010336D-02
 -0.91817868D-02 -0.64862419D-02  0.11791297D-01  0.15609833D-02  0.12471162D-04
  0.22785952D-05 -0.00000000D+00  0.00000000D+00  0.85853262D-05 -0.00000000D+00
  0.00000000D+00 -0.17906971D-03  0.00000000D+00  0.00000000D+00  0.25954623D-03
  0.00000000D+00  0.00000000D+00  0.16576921D-06  0.16137640D-06  0.16137640D-06
 -0.00000000D+00  0.00000000D+00 -0.00000000D+00  0.22037304D-05  0.22358299D-05
  0.22358299D-05 -0.00000000D+00  0.00000000D+00  0.00000000D+00  0.37924982D-05
  0.17904288D-04  0.23233513D-03  0.20614234D-01  0.32010336D-02  0.91817868D-02
  0.64862419D-02 -0.11791297D-01 -0.15609833D-02 -0.12471162D-04  0.22785952D-05
  0.00000000D+00 -0.00000000D+00  0.85853262D-05  0.00000000D+00 -0.00000000D+00
 -0.17906971D-03 -0.00000000D+00 -0.00000000D+00  0.25954623D-03 -0.00000000D+00
 -0.00000000D+00 -0.16576921D-06 -0.16137640D-06 -0.16137640D-06 -0.00000000D+00
  0.00000000D+00  0.00000000D+00 -0.22037304D-05 -0.22358299D-05 -0.22358299D-05
 -0.00000000D+00  0.00000000D+00 -0.00000000D+00
MO   10     MO 0.0        OCC NO =    0.0000000  ORB. ENERGY =    0.008811
  0.00000000D+00 -0.00000000D+00 -0.00000000D+00 -0.00000000D+00  0.00000000D+00
 -0.00000000D+00  0.00000000D+00 -0.00000000D+00  0.00000000D+00 -0.00000000D+00
  0.00000000D+00  0.32429239D-06  0.13192264D-06 -0.00000000D+00 -0.58098747D-05
 -0.23634672D-05 -0.00000000D+00  0.12862563D-03  0.52325127D-04 -0.00000000D+00
 -0.60528979D-03 -0.24623292D-03 -0.00000000D+00 -0.00000000D+00 -0.00000000D+00
  0.64596305D-07  0.26277887D-07 -0.00000000D+00 -0.00000000D+00 -0.00000000D+00
 -0.00000000D+00 -0.25717813D-06 -0.10462050D-06  0.00000000D+00 -0.00000000D+00
 -0.00000000D+00  0.00000000D+00  0.00000000D+00 -0.00000000D+00  0.00000000D+00
 -0.00000000D+00 -0.00000000D+00 -0.00000000D+00  0.00000000D+00 -0.00000000D+00
  0.32429239D-06  0.13192264D-06 -0.00000000D+00 -0.58098747D-05 -0.23634672D-05
 -0.00000000D+00  0.12862563D-03  0.52325127D-04 -0.00000000D+00 -0.60528979D-03
 -0.24623292D-03  0.00000000D+00  0.00000000D+00  0.00000000D+00 -0.64596305D-07
 -0.26277887D-07  0.00000000D+00  0.00000000D+00  0.00000000D+00  0.00000000D+00
  0.25717813D-06  0.10462050D-06 -0.00000000D+00
MO   11     MO 0.0        OCC NO =    0.0000000  ORB. ENERGY =    0.008811
  0.00000000D+00  0.00000000D+00 -0.00000000D+00 -0.00000000D+00  0.00000000D+00
 -0.00000000D+00  0.00000000D+00 -0.00000000D+00  0.00000000D+00 -0.00000000D+00
 -0.00000000D+00 -0.13192264D-06  0.32429239D-06 -0.00000000D+00  0.23634672D-05
 -0.58098747D-05 -0.00000000D+00 -0.52325127D-04  0.12862563D-03 -0.00000000D+00
  0.24623292D-03 -0.60528979D-03 -0.00000000D+00 -0.00000000D+00 -0.00000000D+00
 -0.26277887D-07  0.64596305D-07  0.00000000D+00 -0.00000000D+00 -0.00000000D+00
 -0.00000000D+00  0.10462050D-06 -0.25717813D-06 -0.00000000D+00  0.00000000D+00
 -0.00000000D+00  0.00000000D+00  0.00000000D+00 -0.00000000D+00  0.00000000D+00
  0.00000000D+00 -0.00000000D+00 -0.00000000D+00 -0.00000000D+00  0.00000000D+00
 -0.13192264D-06  0.32429239D-06  0.00000000D+00  0.23634672D-05 -0.58098747D-05
  0.00000000D+00 -0.52325127D-04  0.12862563D-03 -0.00000000D+00  0.24623292D-03
 -0.60528979D-03  0.00000000D+00  0.00000000D+00  0.00000000D+00  0.26277887D-07
 -0.64596305D-07 -0.00000000D+00  0.00000000D+00  0.00000000D+00  0.00000000D+00
 -0.10462050D-06  0.25717813D-06  0.00000000D+00
MO   12     MO 0.0        OCC NO =    0.0000000  ORB. ENERGY =    0.008954
  0.60648677D-04 -0.25311776D-03  0.33401739D-02 -0.12582546D-01  0.13244995D-01
 -0.17789437D-02  0.11944675D-01 -0.14638738D-01  0.17924379D-03 -0.73215079D-03
  0.80258761D-07 -0.00000000D+00 -0.00000000D+00 -0.82414917D-06  0.00000000D+00
 -0.00000000D+00 -0.16338715D-03  0.00000000D+00 -0.00000000D+00  0.30964478D-03
 -0.00000000D+00  0.00000000D+00 -0.11082245D-08 -0.29758893D-08 -0.29758893D-08
  0.00000000D+00  0.00000000D+00  0.00000000D+00 -0.31825688D-07  0.46206471D-08
  0.46206471D-08 -0.00000000D+00 -0.00000000D+00 -0.00000000D+00  0.60648677D-04
 -0.25311776D-03  0.33401739D-02 -0.12582546D-01  0.13244995D-01 -0.17789437D-02
  0.11944675D-01 -0.14638738D-01  0.17924379D-03 -0.73215079D-03 -0.80258761D-07
  0.00000000D+00  0.00000000D+00  0.82414917D-06 -0.00000000D+00  0.00000000D+00
  0.16338715D-03 -0.00000000D+00 -0.00000000D+00 -0.30964478D-03  0.00000000D+00
  0.00000000D+00 -0.11082245D-08 -0.29758893D-08 -0.29758893D-08 -0.00000000D+00
 -0.00000000D+00 -0.00000000D+00 -0.31825688D-07  0.46206471D-08  0.46206471D-08
  0.00000000D+00  0.00000000D+00  0.00000000D+00
MO   13     MO 0.0        OCC NO =    0.0000000  ORB. ENERGY =    0.013161
  0.43349312D-05  0.18348930D-04 -0.66366842D-01 -0.18628975D+01  0.15046031D-01
 -0.85698559D-02  0.63754002D-03  0.21730081D-02  0.15410477D-02 -0.39962199D-03
 -0.25602755D-05 -0.00000000D+00  0.00000000D+00 -0.98163434D-05 -0.00000000D+00
  0.00000000D+00 -0.15964881D-03 -0.00000000D+00 -0.00000000D+00 -0.31295006D-01
  0.00000000D+00  0.00000000D+00 -0.21478181D-06 -0.16554491D-06 -0.16554491D-06
 -0.00000000D+00  0.00000000D+00  0.00000000D+00 -0.23618676D-05 -0.27403099D-05
 -0.27403099D-05 -0.00000000D+00  0.00000000D+00 -0.00000000D+00 -0.43349312D-05
 -0.18348930D-04  0.66366842D-01  0.18628975D+01 -0.15046031D-01  0.85698559D-02
 -0.63754002D-03 -0.21730081D-02 -0.15410477D-02  0.39962199D-03 -0.25602755D-05
  0.00000000D+00 -0.00000000D+00 -0.98163434D-05  0.00000000D+00 -0.00000000D+00
 -0.15964881D-03  0.00000000D+00  0.00000000D+00 -0.31295006D-01 -0.00000000D+00
 -0.00000000D+00  0.21478181D-06  0.16554491D-06  0.16554491D-06 -0.00000000D+00
 -0.00000000D+00 -0.00000000D+00  0.23618676D-05  0.27403099D-05  0.27403099D-05
 -0.00000000D+00  0.00000000D+00  0.00000000D+00
MO   14     MO 0.0        OCC NO =    0.0000000  ORB. ENERGY =    0.014502
  0.00000000D+00  0.00000000D+00  0.00000000D+00  0.00000000D+00 -0.00000000D+00
  0.00000000D+00  0.00000000D+00 -0.00000000D+00 -0.00000000D+00 -0.00000000D+00
  0.00000000D+00 -0.73575437D-08 -0.18359293D-08  0.00000000D+00  0.23593026D-07
  0.58872823D-08  0.00000000D+00 -0.13670015D-02 -0.34110550D-03  0.00000000D+00
  0.35045322D-02  0.87447980D-03  0.00000000D+00  0.00000000D+00  0.00000000D+00
  0.99849039D-08  0.24915157D-08 -0.00000000D+00  0.00000000D+00  0.00000000D+00
  0.00000000D+00 -0.20645106D-06 -0.51515362D-07  0.00000000D+00  0.00000000D+00
  0.00000000D+00 -0.00000000D+00 -0.00000000D+00  0.00000000D+00 -0.00000000D+00
  0.00000000D+00  0.00000000D+00  0.00000000D+00 -0.00000000D+00  0.00000000D+00
  0.73575437D-08  0.18359293D-08  0.00000000D+00 -0.23593026D-07 -0.58872823D-08
 -0.00000000D+00  0.13670015D-02  0.34110550D-03  0.00000000D+00 -0.35045322D-02
 -0.87447980D-03 -0.00000000D+00 -0.00000000D+00 -0.00000000D+00  0.99849039D-08
  0.24915157D-08  0.00000000D+00 -0.00000000D+00 -0.00000000D+00 -0.00000000D+00
 -0.20645106D-06 -0.51515362D-07 -0.00000000D+00
MO   15     MO 0.0        OCC NO =    0.0000000  ORB. ENERGY =    0.014502
 -0.00000000D+00 -0.00000000D+00  0.00000000D+00  0.00000000D+00 -0.00000000D+00
  0.00000000D+00  0.00000000D+00 -0.00000000D+00 -0.00000000D+00  0.00000000D+00
  0.00000000D+00  0.18359293D-08 -0.73575437D-08  0.00000000D+00 -0.58872823D-08
  0.23593026D-07  0.00000000D+00  0.34110550D-03 -0.13670015D-02  0.00000000D+00
 -0.87447980D-03  0.35045322D-02  0.00000000D+00  0.00000000D+00  0.00000000D+00
 -0.24915157D-08  0.99849039D-08 -0.00000000D+00  0.00000000D+00  0.00000000D+00
  0.00000000D+00  0.51515362D-07 -0.20645106D-06 -0.00000000D+00 -0.00000000D+00
 -0.00000000D+00 -0.00000000D+00 -0.00000000D+00  0.00000000D+00 -0.00000000D+00
 -0.00000000D+00  0.00000000D+00  0.00000000D+00 -0.00000000D+00  0.00000000D+00
 -0.18359293D-08  0.73575437D-08  0.00000000D+00  0.58872823D-08 -0.23593026D-07
  0.00000000D+00 -0.34110550D-03  0.13670015D-02  0.00000000D+00  0.87447980D-03
 -0.35045322D-02 -0.00000000D+00 -0.00000000D+00 -0.00000000D+00 -0.24915157D-08
  0.99849039D-08  0.00000000D+00 -0.00000000D+00 -0.00000000D+00 -0.00000000D+00
  0.51515362D-07 -0.20645106D-06  0.00000000D+00
MO   16     MO 0.0        OCC NO =    0.0000000  ORB. ENERGY =    0.014856
 -0.36179200D-03 -0.14671408D-02  0.48867543D-02 -0.22371225D-03 -0.11960612D-01
  0.51760083D-02 -0.62898429D-02  0.56426136D-02 -0.95337602D-03  0.56935061D-03
 -0.49567839D-06  0.00000000D+00 -0.00000000D+00 -0.67525231D-05  0.00000000D+00
 -0.00000000D+00 -0.11635937D-02 -0.00000000D+00  0.00000000D+00  0.29437383D-02
  0.00000000D+00 -0.00000000D+00  0.17186258D-07  0.93568044D-08  0.93568044D-08
  0.00000000D+00 -0.00000000D+00  0.00000000D+00  0.21017879D-06  0.39182564D-06
  0.39182564D-06 -0.00000000D+00 -0.00000000D+00 -0.00000000D+00 -0.36179200D-03
 -0.14671408D-02  0.48867543D-02 -0.22371234D-03 -0.11960612D-01  0.51760083D-02
 -0.62898429D-02  0.56426136D-02 -0.95337602D-03  0.56935061D-03  0.49567839D-06
 -0.00000000D+00  0.00000000D+00  0.67525231D-05 -0.00000000D+00  0.00000000D+00
  0.11635937D-02  0.00000000D+00 -0.00000000D+00 -0.29437383D-02 -0.00000000D+00
  0.00000000D+00  0.17186258D-07  0.93568044D-08  0.93568044D-08 -0.00000000D+00
  0.00000000D+00 -0.00000000D+00  0.21017879D-06  0.39182564D-06  0.39182564D-06
 -0.00000000D+00  0.00000000D+00  0.00000000D+00
MO   17     MO 0.0        OCC NO =    0.0000000  ORB. ENERGY =    0.018561
  0.34180713D-05  0.37783396D-05 -0.24327712D-01 -0.68623719D+00  0.57669064D-01
 -0.60347819D-03  0.18277295D-01 -0.23480430D-01  0.52297581D-03 -0.12095251D-02
 -0.20126050D-05 -0.00000000D+00  0.00000000D+00 -0.80597688D-06 -0.00000000D+00
  0.00000000D+00 -0.15629555D-03 -0.00000000D+00  0.00000000D+00 -0.10669457D-01
 -0.00000000D+00 -0.00000000D+00 -0.17515164D-06 -0.14493097D-06 -0.14493097D-06
 -0.00000000D+00  0.00000000D+00  0.00000000D+00 -0.14177333D-05 -0.16439376D-05
 -0.16439376D-05 -0.00000000D+00  0.00000000D+00 -0.00000000D+00 -0.34180713D-05
 -0.37783396D-05  0.24327712D-01  0.68623719D+00 -0.57669064D-01  0.60347819D-03
 -0.18277295D-01  0.23480430D-01 -0.52297581D-03  0.12095251D-02 -0.20126050D-05
  0.00000000D+00 -0.00000000D+00 -0.80597688D-06  0.00000000D+00 -0.00000000D+00
 -0.15629555D-03 -0.00000000D+00 -0.00000000D+00 -0.10669457D-01  0.00000000D+00
  0.00000000D+00  0.17515164D-06  0.14493097D-06  0.14493097D-06 -0.00000000D+00
 -0.00000000D+00 -0.00000000D+00  0.14177333D-05  0.16439376D-05  0.16439376D-05
 -0.00000000D+00  0.00000000D+00  0.00000000D+00
MO   18     MO 0.0        OCC NO =    0.0000000  ORB. ENERGY =    0.025214
  0.20974683D-02  0.48382840D-02 -0.14291570D-01  0.12645974D-01 -0.17486694D-02
 -0.88046279D-02 -0.17147652D-02  0.63261954D-02  0.21378845D-02 -0.39843765D-03
  0.28179501D-05  0.00000000D+00  0.00000000D+00  0.24764226D-04 -0.00000000D+00
  0.00000000D+00  0.18285664D-03  0.00000000D+00  0.00000000D+00 -0.47862173D-03
 -0.00000000D+00 -0.00000000D+00 -0.70175567D-07 -0.73826497D-07 -0.73826497D-07
 -0.00000000D+00 -0.00000000D+00 -0.00000000D+00 -0.15589541D-05 -0.15792074D-05
 -0.15792074D-05  0.00000000D+00  0.00000000D+00  0.00000000D+00  0.20974683D-02
  0.48382840D-02 -0.14291570D-01  0.12645974D-01 -0.17486694D-02 -0.88046279D-02
 -0.17147652D-02  0.63261954D-02  0.21378845D-02 -0.39843765D-03 -0.28179501D-05
 -0.00000000D+00 -0.00000000D+00 -0.24764226D-04 -0.00000000D+00 -0.00000000D+00
 -0.18285664D-03 -0.00000000D+00 -0.00000000D+00  0.47862173D-03  0.00000000D+00
  0.00000000D+00 -0.70175567D-07 -0.73826497D-07 -0.73826497D-07  0.00000000D+00
  0.00000000D+00  0.00000000D+00 -0.15589541D-05 -0.15792074D-05 -0.15792074D-05
 -0.00000000D+00 -0.00000000D+00 -0.00000000D+00
MO   19     MO 0.0        OCC NO =    0.0000000  ORB. ENERGY =    0.034410
  0.43415459D-04  0.87274238D-04 -0.10656609D-01 -0.22948853D+00 -0.68414725D-02
 -0.12398290D-01 -0.95423274D-03  0.55533618D-02  0.22465302D-02 -0.46489130D-03
 -0.25633166D-04 -0.00000000D+00 -0.00000000D+00 -0.29009189D-04 -0.00000000D+00
  0.00000000D+00  0.39855974D-03 -0.00000000D+00  0.00000000D+00 -0.44897435D-02
  0.00000000D+00 -0.00000000D+00 -0.21972557D-05 -0.21337995D-05 -0.21337995D-05
 -0.00000000D+00  0.00000000D+00  0.00000000D+00 -0.19394812D-04 -0.19777784D-04
 -0.19777784D-04 -0.00000000D+00 -0.00000000D+00 -0.00000000D+00 -0.43415459D-04
 -0.87274238D-04  0.10656609D-01  0.22948853D+00  0.68414725D-02  0.12398290D-01
  0.95423274D-03 -0.55533618D-02 -0.22465302D-02  0.46489130D-03 -0.25633166D-04
  0.00000000D+00  0.00000000D+00 -0.29009189D-04  0.00000000D+00 -0.00000000D+00
  0.39855974D-03  0.00000000D+00  0.00000000D+00 -0.44897435D-02 -0.00000000D+00
 -0.00000000D+00  0.21972557D-05  0.21337995D-05  0.21337995D-05 -0.00000000D+00
 -0.00000000D+00 -0.00000000D+00  0.19394812D-04  0.19777784D-04  0.19777784D-04
 -0.00000000D+00  0.00000000D+00  0.00000000D+00
MO   20     MO 0.0        OCC NO =    0.0000000  ORB. ENERGY =    0.037044
 -0.00000000D+00  0.00000000D+00  0.00000000D+00  0.00000000D+00  0.00000000D+00
  0.00000000D+00 -0.00000000D+00 -0.00000000D+00 -0.00000000D+00  0.00000000D+00
  0.00000000D+00 -0.00000000D+00  0.00000000D+00  0.00000000D+00 -0.00000000D+00
  0.00000000D+00 -0.00000000D+00  0.00000000D+00  0.00000000D+00  0.00000000D+00
 -0.00000000D+00 -0.00000000D+00  0.00000000D+00 -0.42711958D-07  0.42711958D-07
  0.00000000D+00 -0.00000000D+00  0.15953225D-07  0.00000000D+00  0.59624597D-06
 -0.59624597D-06 -0.00000000D+00  0.00000000D+00 -0.22270218D-06 -0.00000000D+00
  0.00000000D+00 -0.00000000D+00 -0.00000000D+00 -0.00000000D+00 -0.00000000D+00
  0.00000000D+00  0.00000000D+00  0.00000000D+00 -0.00000000D+00  0.00000000D+00
 -0.00000000D+00  0.00000000D+00  0.00000000D+00 -0.00000000D+00  0.00000000D+00
 -0.00000000D+00 -0.00000000D+00 -0.00000000D+00  0.00000000D+00  0.00000000D+00
  0.00000000D+00 -0.00000000D+00 -0.42711958D-07  0.42711958D-07 -0.00000000D+00
  0.00000000D+00  0.15953225D-07 -0.00000000D+00  0.59624597D-06 -0.59624597D-06
  0.00000000D+00 -0.00000000D+00 -0.22270218D-06
MO   21     MO 0.0        OCC NO =    0.0000000  ORB. ENERGY =    0.037044
 -0.00000000D+00  0.00000000D+00  0.00000000D+00  0.00000000D+00 -0.00000000D+00
  0.00000000D+00 -0.00000000D+00 -0.00000000D+00 -0.00000000D+00 -0.00000000D+00
  0.00000000D+00  0.00000000D+00 -0.00000000D+00  0.00000000D+00  0.00000000D+00
 -0.00000000D+00 -0.00000000D+00  0.00000000D+00  0.00000000D+00  0.00000000D+00
  0.00000000D+00 -0.00000000D+00  0.00000000D+00 -0.79766125D-08  0.79766125D-08
 -0.00000000D+00  0.00000000D+00 -0.85423914D-07  0.00000000D+00  0.11135109D-06
 -0.11135109D-06  0.00000000D+00 -0.00000000D+00  0.11924919D-05 -0.00000000D+00
  0.00000000D+00 -0.00000000D+00 -0.00000000D+00  0.00000000D+00 -0.00000000D+00
  0.00000000D+00  0.00000000D+00  0.00000000D+00  0.00000000D+00  0.00000000D+00
  0.00000000D+00 -0.00000000D+00  0.00000000D+00  0.00000000D+00 -0.00000000D+00
 -0.00000000D+00 -0.00000000D+00 -0.00000000D+00  0.00000000D+00 -0.00000000D+00
  0.00000000D+00 -0.00000000D+00 -0.79766125D-08  0.79766125D-08  0.00000000D+00
 -0.00000000D+00 -0.85423914D-07 -0.00000000D+00  0.11135109D-06 -0.11135109D-06
 -0.00000000D+00  0.00000000D+00  0.11924919D-05
MO   22     MO 0.0        OCC NO =    0.0000000  ORB. ENERGY =    0.041149
  0.00000000D+00  0.00000000D+00  0.00000000D+00  0.00000000D+00 -0.00000000D+00
 -0.00000000D+00 -0.00000000D+00  0.00000000D+00  0.00000000D+00  0.00000000D+00
  0.00000000D+00 -0.19594075D-05  0.37254113D-07 -0.00000000D+00  0.50835248D-04
 -0.96652674D-06  0.00000000D+00 -0.19252867D-03  0.36605336D-05  0.00000000D+00
  0.26516136D-03 -0.50414973D-05  0.00000000D+00  0.00000000D+00  0.00000000D+00
 -0.15498536D-05  0.29467258D-07  0.00000000D+00  0.00000000D+00  0.00000000D+00
  0.00000000D+00  0.72855983D-05 -0.13852057D-06 -0.00000000D+00  0.00000000D+00
 -0.00000000D+00 -0.00000000D+00 -0.00000000D+00 -0.00000000D+00  0.00000000D+00
 -0.00000000D+00 -0.00000000D+00 -0.00000000D+00  0.00000000D+00  0.00000000D+00
 -0.19594075D-05  0.37254113D-07 -0.00000000D+00  0.50835248D-04 -0.96652674D-06
  0.00000000D+00 -0.19252867D-03  0.36605336D-05  0.00000000D+00  0.26516136D-03
 -0.50414973D-05 -0.00000000D+00 -0.00000000D+00 -0.00000000D+00  0.15498536D-05
 -0.29467258D-07 -0.00000000D+00 -0.00000000D+00 -0.00000000D+00 -0.00000000D+00
 -0.72855983D-05  0.13852057D-06  0.00000000D+00
MO   23     MO 0.0        OCC NO =    0.0000000  ORB. ENERGY =    0.041149
 -0.00000000D+00  0.00000000D+00  0.00000000D+00  0.00000000D+00 -0.00000000D+00
 -0.00000000D+00  0.00000000D+00  0.00000000D+00  0.00000000D+00 -0.00000000D+00
  0.00000000D+00  0.37254113D-07  0.19594075D-05 -0.00000000D+00 -0.96652674D-06
 -0.50835248D-04  0.00000000D+00  0.36605336D-05  0.19252867D-03  0.00000000D+00
 -0.50414973D-05 -0.26516136D-03  0.00000000D+00  0.00000000D+00  0.00000000D+00
  0.29467258D-07  0.15498536D-05  0.00000000D+00  0.00000000D+00  0.00000000D+00
  0.00000000D+00 -0.13852057D-06 -0.72855983D-05 -0.00000000D+00 -0.00000000D+00
 -0.00000000D+00 -0.00000000D+00 -0.00000000D+00  0.00000000D+00  0.00000000D+00
  0.00000000D+00 -0.00000000D+00 -0.00000000D+00  0.00000000D+00  0.00000000D+00
  0.37254113D-07  0.19594075D-05 -0.00000000D+00 -0.96652674D-06 -0.50835248D-04
  0.00000000D+00  0.36605336D-05  0.19252867D-03  0.00000000D+00 -0.50414973D-05
 -0.26516136D-03 -0.00000000D+00 -0.00000000D+00 -0.00000000D+00 -0.29467258D-07
 -0.15498536D-05 -0.00000000D+00 -0.00000000D+00 -0.00000000D+00 -0.00000000D+00
  0.13852057D-06  0.72855983D-05  0.00000000D+00
MO   24     MO 0.0        OCC NO =    0.0000000  ORB. ENERGY =    0.042397
  0.47383047D-04 -0.11063014D-03  0.77881907D-03  0.54422723D-01 -0.21800709D-02
  0.48822875D-02 -0.66543318D-03 -0.78768089D-03 -0.84509404D-03  0.23156331D-03
 -0.26279692D-04 -0.00000000D+00 -0.00000000D+00  0.87100717D-04 -0.00000000D+00
 -0.00000000D+00 -0.44550659D-05  0.00000000D+00  0.00000000D+00  0.95900215D-03
  0.00000000D+00 -0.00000000D+00 -0.35286243D-05 -0.35915166D-05 -0.35915166D-05
 -0.00000000D+00 -0.00000000D+00  0.00000000D+00 -0.88829195D-05 -0.85471665D-05
 -0.85471665D-05 -0.00000000D+00 -0.00000000D+00 -0.00000000D+00 -0.47383047D-04
  0.11063014D-03 -0.77881907D-03 -0.54422723D-01  0.21800709D-02 -0.48822875D-02
  0.66543318D-03  0.78768089D-03  0.84509404D-03 -0.23156331D-03 -0.26279692D-04
  0.00000000D+00  0.00000000D+00  0.87100717D-04  0.00000000D+00  0.00000000D+00