[Molden Format]
[Atoms] AU
E+       1       4     0.00000000     0.00000000     0.00000000
E+       2       4    44.00000000     0.00000000     0.00000000
[GTO]
  1 0
s  1 1.00
   1.0000000000E-04   1.0000000000E+00
s  1 1.00
   3.0000000000E-04   1.0000000000E+00
s  1 1.00
   9.0000000000E-04   1.0000000000E+00
s  1 1.00
   2.7000000000E-03   1.0000000000E+00
s  1 1.00
   8.1000000000E-03   1.0000000000E+00
s  1 1.00
   2.4300000000E-02   1.0000000000E+00
s  1 1.00
   7.2900000000E-02   1.0000000000E+00
s  1 1.00
   2.1870000000E-01   1.0000000000E+00
s  1 1.00
   6.5610000000E-01   1.0000000000E+00
s  1 1.00
   1.9683000000E+00   1.0000000000E+00
p  1 1.00
   1.0000000000E-04   1.0000000000E+00
p  1 1.00
   3.0000000000E-04   1.0000000000E+00
p  1 1.00
   9.0000000000E-04   1.0000000000E+00
p  1 1.00
   2.7000000000E-03   1.0000000000E+00
d  1 1.00
   1.0000000000E-04   1.0000000000E+00
d  1 1.00
   3.0000000000E-04   1.0000000000E+00
 
  2 0
s  1 1.00
   1.0000000000E-04   1.0000000000E+00
s  1 1.00
   3.0000000000E-04   1.0000000000E+00
s  1 1.00
   9.0000000000E-04   1.0000000000E+00
s  1 1.00
   2.7000000000E-03   1.0000000000E+00
s  1 1.00
   8.1000000000E-03   1.0000000000E+00
s  1 1.00
   2.4300000000E-02   1.0000000000E+00
s  1 1.00
   7.2900000000E-02   1.0000000000E+00
s  1 1.00
   2.1870000000E-01   1.0000000000E+00
s  1 1.00
   6.5610000000E-01   1.0000000000E+00
s  1 1.00
   1.9683000000E+00   1.0000000000E+00
p  1 1.00
   1.0000000000E-04   1.0000000000E+00
p  1 1.00
   3.0000000000E-04   1.0000000000E+00
p  1 1.00
   9.0000000000E-04   1.0000000000E+00
p  1 1.00
   2.7000000000E-03   1.0000000000E+00
d  1 1.00
   1.0000000000E-04   1.0000000000E+00
d  1 1.00
   3.0000000000E-04   1.0000000000E+00
 
 
[MO]
Ene=    -2.54949E-03
Spin= Alpha
Occup=   1.0000000000
   1       0.00038227
   2       0.02535274
   3      -0.04291590
   4      -0.20806519
   5      -0.28574703
   6      -0.19463542
   7      -0.11941021
   8       0.09669995
   9       0.00665326
  10      -0.00009831
  11       0.00798957
  12       0.00000000
  13       0.00000000
  14      -0.01164664
  15      -0.00000000
  16      -0.00000000
  17      -0.00088905
  18       0.00000000
  19       0.00000000
  20      -0.10343121
  21      -0.00000000
  22      -0.00000000
  23       0.00329967
  24      -0.00063386
  25      -0.00063386
  26       0.00000000
  27       0.00000000
  28      -0.00000000
  29      -0.01301291
  30      -0.00365883
  31      -0.00365883
  32      -0.00000000
  33      -0.00000000
  34       0.00000000
  35       0.00038227
  36       0.02535274
  37      -0.04291590
  38      -0.20806519
  39      -0.28574703
  40      -0.19463542
  41      -0.11941021
  42       0.09669995
  43       0.00665326
  44      -0.00009831
  45      -0.00798957
  46      -0.00000000
  47      -0.00000000
  48       0.01164664
  49       0.00000000
  50       0.00000000
  51       0.00088905
  52      -0.00000000
  53      -0.00000000
  54       0.10343121
  55       0.00000000
  56       0.00000000
  57       0.00329967
  58      -0.00063386
  59      -0.00063386
  60       0.00000000
  61       0.00000000
  62       0.00000000
  63      -0.01301291
  64      -0.00365883
  65      -0.00365883
  66      -0.00000000
  67      -0.00000000
  68       0.00000000
Ene=    -2.30411E-03
Spin= Alpha
Occup=   0.0000000000
   1      -0.01391449
   2       0.94997825
   3      -0.00267206
   4       0.26545443
   5       0.27392252
   6       0.21402752
   7       0.12138493
   8      -0.10002938
   9      -0.00719788
  10       0.00014670
  11       0.00958090
  12      -0.00000000
  13      -0.00000000
  14       0.41802801
  15       0.00000000
  16       0.00000000
  17      -0.04627798
  18       0.00000000
  19      -0.00000000
  20       0.13086085
  21      -0.00000000
  22       0.00000000
  23       0.01036768
  24       0.00945079
  25       0.00945079
  26      -0.00000000
  27      -0.00000000
  28       0.00000000
  29       0.11675162
  30       0.02343007
  31       0.02343007
  32       0.00000000
  33       0.00000000
  34      -0.00000000
  35       0.01391449
  36      -0.94997825
  37       0.00267206
  38      -0.26545443
  39      -0.27392252
  40      -0.21402752
  41      -0.12138493
  42       0.10002938
  43       0.00719788
  44      -0.00014670
  45       0.00958090
  46       0.00000000
  47       0.00000000
  48       0.41802801
  49      -0.00000000
  50      -0.00000000
  51      -0.04627798
  52       0.00000000
  53       0.00000000
  54       0.13086085
  55      -0.00000000
  56      -0.00000000
  57      -0.01036768
  58      -0.00945079
  59      -0.00945079
  60      -0.00000000
  61      -0.00000000
  62      -0.00000000
  63      -0.11675162
  64      -0.02343007
  65      -0.02343007
  66       0.00000000
  67       0.00000000
  68       0.00000000
Ene=     4.56194E-03
Spin= Alpha
Occup=   0.0000000000
   1      -0.61321716
   2      -0.13392287
   3       0.94502393
   4      -0.53806721
   5      -0.09257294
   6      -0.12516500
   7      -0.04478190
   8       0.04148544
   9       0.00381134
  10      -0.00017474
  11       0.95459234
  12      -0.00000000
  13       0.00000000
  14      -0.30758143
  15       0.00000000
  16      -0.00000000
  17       0.45154220
  18      -0.00000000
  19      -0.00000000
  20      -0.03310435
  21       0.00000000
  22       0.00000000
  23       0.39520073
  24       0.02828490
  25       0.02828490
  26      -0.00000000
  27       0.00000000
  28      -0.00000000
  29      -0.00715371
  30       0.09403954
  31       0.09403954
  32       0.00000000
  33       0.00000000
  34       0.00000000
  35      -0.61321716
  36      -0.13392287
  37       0.94502393
  38      -0.53806721
  39      -0.09257294
  40      -0.12516500
  41      -0.04478190
  42       0.04148544
  43       0.00381134
  44      -0.00017474
  45      -0.95459234
  46       0.00000000
  47      -0.00000000
  48       0.30758143
  49      -0.00000000
  50      -0.00000000
  51      -0.45154220
  52      -0.00000000
  53       0.00000000
  54       0.03310435
  55       0.00000000
  56       0.00000000
  57       0.39520073
  58       0.02828490
  59       0.02828490
  60      -0.00000000
  61      -0.00000000
  62       0.00000000
  63      -0.00715371
  64       0.09403954
  65       0.09403954
  66       0.00000000
  67      -0.00000000
  68      -0.00000000
Ene=     8.76102E-03
Spin= Alpha
Occup=   0.0000000000
   1      -0.00000000
   2       0.00000000
   3      -0.00000000
   4       0.00000000
   5       0.00000000
   6       0.00000000
   7       0.00000000
   8      -0.00000000
   9       0.00000000
  10      -0.00000000
  11       0.00000000
  12       0.01724354
  13       0.03014028
  14       0.00000000
  15      -0.04856785
  16      -0.08489258
  17      -0.00000000
  18       0.16102797
  19       0.28146352
  20       0.00000000
  21       0.20180639
  22       0.35274080
  23       0.00000000
  24       0.00000000
  25       0.00000000
  26      -0.01329759
  27      -0.02324309
  28       0.00000000
  29       0.00000000
  30       0.00000000
  31       0.00000000
  32       0.02760501
  33       0.04825127
  34       0.00000000
  35       0.00000000
  36      -0.00000000
  37       0.00000000
  38      -0.00000000
  39       0.00000000
  40      -0.00000000
  41      -0.00000000
  42       0.00000000
  43      -0.00000000
  44      -0.00000000
  45      -0.00000000
  46       0.01724354
  47       0.03014028
  48       0.00000000
  49      -0.04856785
  50      -0.08489258
  51      -0.00000000
  52       0.16102797
  53       0.28146352
  54       0.00000000
  55       0.20180639
  56       0.35274080
  57      -0.00000000
  58      -0.00000000
  59      -0.00000000
  60       0.01329759
  61       0.02324309
  62       0.00000000
  63      -0.00000000
  64      -0.00000000
  65      -0.00000000
  66      -0.02760501
  67      -0.04825127
  68      -0.00000000
Ene=     8.76102E-03
Spin= Alpha
Occup=   0.0000000000
   1      -0.00000000
   2      -0.00000000
   3       0.00000000
   4       0.00000000
   5      -0.00000000
   6       0.00000000
   7      -0.00000000
   8       0.00000000
   9       0.00000000
  10      -0.00000000
  11       0.00000000
  12       0.03014028
  13      -0.01724354
  14      -0.00000000
  15      -0.08489258
  16       0.04856785
  17       0.00000000
  18       0.28146352
  19      -0.16102797
  20       0.00000000
  21       0.35274080
  22      -0.20180639
  23       0.00000000
  24      -0.00000000
  25      -0.00000000
  26      -0.02324309
  27       0.01329759
  28      -0.00000000
  29      -0.00000000
  30      -0.00000000
  31      -0.00000000
  32       0.04825127
  33      -0.02760501
  34      -0.00000000
  35      -0.00000000
  36       0.00000000
  37      -0.00000000
  38       0.00000000
  39      -0.00000000
  40      -0.00000000
  41      -0.00000000
  42       0.00000000
  43      -0.00000000
  44       0.00000000
  45      -0.00000000
  46       0.03014028
  47      -0.01724354
  48      -0.00000000
  49      -0.08489258
  50       0.04856785
  51       0.00000000
  52       0.28146352
  53      -0.16102797
  54      -0.00000000
  55       0.35274080
  56      -0.20180639
  57       0.00000000
  58       0.00000000
  59       0.00000000
  60       0.02324309
  61      -0.01329759
  62       0.00000000
  63       0.00000000
  64       0.00000000
  65       0.00000000
  66      -0.04825127
  67       0.02760501
  68       0.00000000
Ene=     1.03698E-02
Spin= Alpha
Occup=   0.0000000000
   1       0.13646844
   2     -13.52312228
   3       1.60204814
   4       0.24549560
   5      -0.56714241
   6      -0.05038059
   7      -0.08496825
   8       0.05891941
   9       0.00244574
  10       0.00018034
  11       0.10159007
  12      -0.00000000
  13       0.00000000
  14      -5.65860213
  15       0.00000000
  16       0.00000000
  17       0.61275338
  18      -0.00000000
  19       0.00000000
  20       0.43357589
  21       0.00000000
  22       0.00000000
  23       0.08482879
  24       0.06085380
  25       0.06085380
  26      -0.00000000
  27       0.00000000
  28       0.00000000
  29      -1.16837803
  30       0.10429070
  31       0.10429070
  32       0.00000000
  33       0.00000000
  34      -0.00000000
  35      -0.13646844
  36      13.52312228
  37      -1.60204814
  38      -0.24549560
  39       0.56714241
  40       0.05038059
  41       0.08496825
  42      -0.05891941
  43      -0.00244574
  44      -0.00018034
  45       0.10159007
  46       0.00000000
  47      -0.00000000
  48      -5.65860213
  49      -0.00000000
  50       0.00000000
  51       0.61275338
  52       0.00000000
  53      -0.00000000
  54       0.43357589
  55      -0.00000000
  56       0.00000000
  57      -0.08482879
  58      -0.06085380
  59      -0.06085380
  60      -0.00000000
  61       0.00000000
  62      -0.00000000
  63       1.16837803
  64      -0.10429070
  65      -0.10429070
  66       0.00000000
  67       0.00000000
  68       0.00000000
Ene=     1.08294E-02
Spin= Alpha
Occup=   0.0000000000
   1       0.29841240
   2      -0.26880579
   3      -0.57356874
   4       1.39838067
   5      -0.74812120
   6       0.05223937
   7      -0.08586377
   8       0.04907568
   9      -0.00004828
  10       0.00044730
  11      -1.21339661
  12      -0.00000000
  13      -0.00000000
  14       0.32829578
  15      -0.00000000
  16       0.00000000
  17      -0.65660881
  18      -0.00000000
  19      -0.00000000
  20       0.79066653
  21       0.00000000
  22       0.00000000
  23      -0.43455410
  24       0.03424803
  25       0.03424803
  26      -0.00000000
  27      -0.00000000
  28       0.00000000
  29       0.20687198
  30       0.11563588
  31       0.11563588
  32      -0.00000000
  33       0.00000000
  34      -0.00000000
  35       0.29841240
  36      -0.26880579
  37      -0.57356874
  38       1.39838067
  39      -0.74812120
  40       0.05223937
  41      -0.08586377
  42       0.04907568
  43      -0.00004828
  44       0.00044730
  45       1.21339661
  46       0.00000000
  47       0.00000000
  48      -0.32829578
  49       0.00000000
  50      -0.00000000
  51       0.65660881
  52       0.00000000
  53       0.00000000
  54      -0.79066653
  55      -0.00000000
  56      -0.00000000
  57      -0.43455410
  58       0.03424803
  59       0.03424803
  60      -0.00000000
  61      -0.00000000
  62      -0.00000000
  63       0.20687198
  64       0.11563588
  65       0.11563588
  66      -0.00000000
  67       0.00000000
  68       0.00000000
Ene=     1.09735E-02
Spin= Alpha
Occup=   0.0000000000
   1      -0.00000000
   2       0.00000000
   3      -0.00000000
   4       0.00000000
   5      -0.00000000
   6      -0.00000000
   7      -0.00000000
   8       0.00000000
   9      -0.00000000
  10       0.00000000
  11       0.00000000
  12      -0.01764631
  13       0.13789252
  14       0.00000000
  15       0.01340968
  16      -0.10478643
  17      -0.00000000
  18      -0.00169667
  19       0.01325821
  20       0.00000000
  21       0.09391856
  22      -0.73390217
  23       0.00000000
  24       0.00000000
  25       0.00000000
  26      -0.00431755
  27       0.03373840
  28       0.00000000
  29       0.00000000
  30       0.00000000
  31       0.00000000
  32       0.00571384
  33      -0.04464930
  34      -0.00000000
  35       0.00000000
  36      -0.00000000
  37      -0.00000000
  38       0.00000000
  39       0.00000000
  40       0.00000000
  41       0.00000000
  42      -0.00000000
  43       0.00000000
  44      -0.00000000
  45      -0.00000000
  46       0.01764631
  47      -0.13789252
  48       0.00000000
  49      -0.01340968
  50       0.10478643
  51      -0.00000000
  52       0.00169667
  53      -0.01325821
  54       0.00000000
  55      -0.09391856
  56       0.73390217
  57       0.00000000
  58      -0.00000000
  59      -0.00000000
  60      -0.00431755
  61       0.03373840
  62      -0.00000000
  63      -0.00000000
  64      -0.00000000
  65      -0.00000000
  66       0.00571384
  67      -0.04464930
  68       0.00000000
Ene=     1.09735E-02
Spin= Alpha
Occup=   0.0000000000
   1      -0.00000000
   2       0.00000000
   3      -0.00000000
   4       0.00000000
   5      -0.00000000
   6      -0.00000000
   7      -0.00000000
   8       0.00000000
   9       0.00000000
  10      -0.00000000
  11      -0.00000000
  12       0.13789252
  13       0.01764631
  14       0.00000000
  15      -0.10478643
  16      -0.01340968
  17      -0.00000000
  18       0.01325821
  19       0.00169667
  20       0.00000000
  21      -0.73390217
  22      -0.09391856
  23      -0.00000000
  24       0.00000000
  25       0.00000000
  26       0.03373840
  27       0.00431755
  28      -0.00000000
  29       0.00000000
  30       0.00000000
  31       0.00000000
  32      -0.04464930
  33      -0.00571384
  34       0.00000000
  35       0.00000000
  36      -0.00000000
  37       0.00000000
  38       0.00000000
  39       0.00000000
  40       0.00000000
  41       0.00000000
  42      -0.00000000
  43       0.00000000
  44      -0.00000000
  45       0.00000000
  46      -0.13789252
  47      -0.01764631
  48       0.00000000
  49       0.10478643
  50       0.01340968
  51      -0.00000000
  52      -0.01325821
  53      -0.00169667
  54      -0.00000000
  55       0.73390217
  56       0.09391856
  57      -0.00000000
  58      -0.00000000
  59      -0.00000000
  60       0.03373840
  61       0.00431755
  62       0.00000000
  63      -0.00000000
  64      -0.00000000
  65      -0.00000000
  66      -0.04464930
  67      -0.00571384
  68      -0.00000000
Ene=     1.57561E-02
Spin= Alpha
Occup=   0.0000000000
   1       0.00000000
   2      -0.00000000
   3       0.00000000
   4      -0.00000000
   5       0.00000000
   6      -0.00000000
   7       0.00000000
   8      -0.00000000
   9       0.00000000
  10      -0.00000000
  11       0.00000000
  12       0.05684653
  13      -0.05178587
  14      -0.00000000
  15      -0.17387925
  16       0.15839995
  17       0.00000000
  18       0.72285957
  19      -0.65850826
  20      -0.00000000
  21      -0.70363361
  22       0.64099385
  23       0.00000000
  24      -0.00000000
  25      -0.00000000
  26      -0.03220123
  27       0.02933457
  28      -0.00000000
  29      -0.00000000
  30      -0.00000000
  31      -0.00000000
  32       0.07730133
  33      -0.07041971
  34       0.00000000
  35      -0.00000000
  36       0.00000000
  37      -0.00000000
  38       0.00000000
  39      -0.00000000
  40       0.00000000
  41      -0.00000000
  42       0.00000000
  43      -0.00000000
  44       0.00000000
  45      -0.00000000
  46       0.05684653
  47      -0.05178587
  48      -0.00000000
  49      -0.17387925
  50       0.15839995
  51       0.00000000
  52       0.72285957
  53      -0.65850826
  54      -0.00000000
  55      -0.70363361
  56       0.64099385
  57       0.00000000
  58       0.00000000
  59       0.00000000
  60       0.03220123
  61      -0.02933457
  62      -0.00000000
  63       0.00000000
  64       0.00000000
  65       0.00000000
  66      -0.07730133
  67       0.07041971
  68       0.00000000
Ene=     1.57561E-02
Spin= Alpha
Occup=   0.0000000000
   1       0.00000000
   2       0.00000000
   3      -0.00000000
   4       0.00000000
   5      -0.00000000
   6       0.00000000
   7      -0.00000000
   8       0.00000000
   9      -0.00000000
  10       0.00000000
  11      -0.00000000
  12       0.05178587
  13       0.05684653
  14       0.00000000
  15      -0.15839995
  16      -0.17387925
  17      -0.00000000
  18       0.65850826
  19       0.72285957
  20       0.00000000
  21      -0.64099385
  22      -0.70363361
  23      -0.00000000
  24       0.00000000
  25       0.00000000
  26      -0.02933457
  27      -0.03220123
  28      -0.00000000
  29       0.00000000
  30       0.00000000
  31       0.00000000
  32       0.07041971
  33       0.07730133
  34      -0.00000000
  35       0.00000000
  36      -0.00000000
  37       0.00000000
  38      -0.00000000
  39       0.00000000
  40      -0.00000000
  41       0.00000000
  42      -0.00000000
  43      -0.00000000
  44       0.00000000
  45       0.00000000
  46       0.05178587
  47       0.05684653
  48       0.00000000
  49      -0.15839995
  50      -0.17387925
  51      -0.00000000
  52       0.65850826
  53       0.72285957
  54       0.00000000
  55      -0.64099385
  56      -0.70363361
  57      -0.00000000
  58      -0.00000000
  59      -0.00000000
  60       0.02933457
  61       0.03220123
  62       0.00000000
  63      -0.00000000
  64      -0.00000000
  65      -0.00000000
  66      -0.07041971
  67      -0.07730133
  68      -0.00000000
Ene=     1.64396E-02
Spin= Alpha
Occup=   0.0000000000
   1       0.29706249
   2     -24.47716485
   3       2.43897417
   4      -1.25504552
   5       0.42885593
   6      -0.05122828
   7       0.03654216
   8      -0.01802134
   9       0.00067425
  10      -0.00025817
  11      -0.00774680
  12      -0.00000000
  13       0.00000000
  14     -10.47543890
  15       0.00000000
  16       0.00000000
  17       1.46515312
  18      -0.00000000
  19       0.00000000
  20      -0.84285980
  21       0.00000000
  22      -0.00000000
  23      -0.04371913
  24      -0.04464011
  25      -0.04464011
  26      -0.00000000
  27       0.00000000
  28      -0.00000000
  29      -2.49717177
  30      -0.17232713
  31      -0.17232713
  32       0.00000000
  33       0.00000000
  34       0.00000000
  35      -0.29706249
  36      24.47716485
  37      -2.43897417
  38       1.25504552
  39      -0.42885593
  40       0.05122828
  41      -0.03654216
  42       0.01802134
  43      -0.00067425
  44       0.00025817
  45      -0.00774680
  46       0.00000000
  47       0.00000000
  48     -10.47543890
  49      -0.00000000
  50      -0.00000000
  51       1.46515312
  52      -0.00000000
  53       0.00000000
  54      -0.84285980
  55       0.00000000
  56      -0.00000000
  57       0.04371913
  58       0.04464011
  59       0.04464011
  60      -0.00000000
  61      -0.00000000
  62       0.00000000
  63       2.49717177
  64       0.17232713
  65       0.17232713
  66       0.00000000
  67       0.00000000
  68      -0.00000000
Ene=     1.77965E-02
Spin= Alpha
Occup=   0.0000000000
   1       0.16282100
   2       0.01438128
   3      -0.21466357
   4       1.20626044
   5      -0.74125193
   6      -0.02193090
   7      -0.07771359
   8       0.05134710
   9       0.00171359
  10       0.00022085
  11      -0.36135430
  12      -0.00000000
  13      -0.00000000
  14       0.04367972
  15       0.00000000
  16       0.00000000
  17      -0.17752706
  18      -0.00000000
  19      -0.00000000
  20      -0.30634358
  21       0.00000000
  22      -0.00000000
  23      -0.13669710
  24      -0.00185917
  25      -0.00185917
  26      -0.00000000
  27      -0.00000000
  28      -0.00000000
  29      -0.01501157
  30       0.00352813
  31       0.00352813
  32       0.00000000
  33       0.00000000
  34       0.00000000
  35       0.16282100
  36       0.01438128
  37      -0.21466357
  38       1.20626044
  39      -0.74125193
  40      -0.02193090
  41      -0.07771359
  42       0.05134710
  43       0.00171359
  44       0.00022085
  45       0.36135430
  46       0.00000000
  47       0.00000000
  48      -0.04367972
  49      -0.00000000
  50      -0.00000000
  51       0.17752706
  52       0.00000000
  53       0.00000000
  54       0.30634358
  55      -0.00000000
  56      -0.00000000
  57      -0.13669710
  58      -0.00185917
  59      -0.00185917
  60      -0.00000000
  61      -0.00000000
  62       0.00000000
  63      -0.01501157
  64       0.00352813
  65       0.00352813
  66       0.00000000
  67       0.00000000
  68      -0.00000000
Ene=     2.02840E-02
Spin= Alpha
Occup=   0.0000000000
   1      -0.18867391
   2      16.92267746
   3      -2.88856309
   4       2.22844049
   5      -0.96916891
   6      -0.00600367
   7      -0.08900437
   8       0.05686367
   9       0.00152067
  10       0.00029956
  11      -0.06177477
  12       0.00000000
  13       0.00000000
  14       7.18393340
  15      -0.00000000
  16      -0.00000000
  17      -1.35293440
  18       0.00000000
  19      -0.00000000
  20      -0.22692393
  21      -0.00000000
  22       0.00000000
  23      -0.02679821
  24      -0.03136389
  25      -0.03136389
  26       0.00000000
  27       0.00000000
  28      -0.00000000
  29       1.58812238
  30       0.01998979
  31       0.01998979
  32      -0.00000000
  33      -0.00000000
  34       0.00000000
  35       0.18867391
  36     -16.92267746
  37       2.88856309
  38      -2.22844049
  39       0.96916891
  40       0.00600367
  41       0.08900437
  42      -0.05686367
  43      -0.00152067
  44      -0.00029956
  45      -0.06177477
  46      -0.00000000
  47      -0.00000000
  48       7.18393340
  49       0.00000000
  50       0.00000000
  51      -1.35293440
  52      -0.00000000
  53      -0.00000000
  54      -0.22692393
  55       0.00000000
  56       0.00000000
  57       0.02679821
  58       0.03136389
  59       0.03136389
  60       0.00000000
  61       0.00000000
  62       0.00000000
  63      -1.58812238
  64      -0.01998979
  65      -0.01998979
  66      -0.00000000
  67      -0.00000000
  68      -0.00000000
Ene=     2.23213E-02
Spin= Alpha
Occup=   0.0000000000
   1      -0.00000000
   2       0.00000000
   3       0.00000000
   4      -0.00000000
   5       0.00000000
   6       0.00000000
   7       0.00000000
   8      -0.00000000
   9      -0.00000000
  10       0.00000000
  11       0.00000000
  12       4.32025090
  13      -0.65454981
  14       0.00000000
  15      -1.01231172
  16       0.15337268
  17      -0.00000000
  18       1.58201554
  19      -0.23968700
  20      -0.00000000
  21      -0.78993605
  22       0.11968112
  23       0.00000000
  24       0.00000000
  25       0.00000000
  26       0.92357579
  27      -0.13992853
  28       0.00000000
  29       0.00000000
  30       0.00000000
  31       0.00000000
  32      -0.16843923
  33       0.02551978
  34      -0.00000000
  35       0.00000000
  36      -0.00000000
  37       0.00000000
  38       0.00000000
  39      -0.00000000
  40       0.00000000
  41      -0.00000000
  42       0.00000000
  43       0.00000000
  44      -0.00000000
  45      -0.00000000
  46      -4.32025090
  47       0.65454981
  48       0.00000000
  49       1.01231172
  50      -0.15337268
  51      -0.00000000
  52      -1.58201554
  53       0.23968700
  54       0.00000000
  55       0.78993605
  56      -0.11968112
  57       0.00000000
  58      -0.00000000
  59      -0.00000000
  60       0.92357579
  61      -0.13992853
  62      -0.00000000
  63      -0.00000000
  64      -0.00000000
  65      -0.00000000
  66      -0.16843923
  67       0.02551978
  68       0.00000000
Ene=     2.23213E-02
Spin= Alpha
Occup=   0.0000000000
   1       0.00000000
   2       0.00000000
   3       0.00000000
   4      -0.00000000
   5       0.00000000
   6      -0.00000000
   7       0.00000000
   8      -0.00000000
   9       0.00000000
  10      -0.00000000
  11      -0.00000000
  12      -0.65454981
  13      -4.32025090
  14       0.00000000
  15       0.15337268
  16       1.01231172
  17      -0.00000000
  18      -0.23968700
  19      -1.58201554
  20       0.00000000
  21       0.11968112
  22       0.78993605
  23      -0.00000000
  24       0.00000000
  25       0.00000000
  26      -0.13992853
  27      -0.92357579
  28      -0.00000000
  29       0.00000000
  30       0.00000000
  31       0.00000000
  32       0.02551978
  33       0.16843923
  34      -0.00000000
  35      -0.00000000
  36      -0.00000000
  37       0.00000000
  38      -0.00000000
  39       0.00000000
  40      -0.00000000
  41       0.00000000
  42      -0.00000000
  43      -0.00000000
  44       0.00000000
  45       0.00000000
  46       0.65454981
  47       4.32025090
  48       0.00000000
  49      -0.15337268
  50      -1.01231172
  51      -0.00000000
  52       0.23968700
  53       1.58201554
  54      -0.00000000
  55      -0.11968112
  56      -0.78993605
  57      -0.00000000
  58      -0.00000000
  59      -0.00000000
  60      -0.13992853
  61      -0.92357579
  62       0.00000000
  63      -0.00000000
  64      -0.00000000
  65      -0.00000000
  66       0.02551978
  67       0.16843923
  68       0.00000000
Ene=     2.80229E-02
Spin= Alpha
Occup=   0.0000000000
   1      -0.81916986
   2       1.14844734
   3      -1.80271367
   4       1.30416280
   5      -0.45406017
   6      -0.04038078
   7      -0.03237945
   8       0.02428507
   9       0.00142167
  10       0.00002139
  11       2.81647982
  12       0.00000000
  13       0.00000000
  14      -0.74287316
  15      -0.00000000
  16      -0.00000000
  17       1.09847698
  18       0.00000000
  19       0.00000000
  20      -0.63529211
  21       0.00000000
  22       0.00000000
  23       1.04278777
  24      -0.06070016
  25      -0.06070016
  26       0.00000000
  27       0.00000000
  28       0.00000000
  29      -0.54834648
  30      -0.29142666
  31      -0.29142666
  32      -0.00000000
  33      -0.00000000
  34      -0.00000000
  35      -0.81916986
  36       1.14844734
  37      -1.80271367
  38       1.30416280
  39      -0.45406017
  40      -0.04038078
  41      -0.03237945
  42       0.02428507
  43       0.00142167
  44       0.00002139
  45      -2.81647982
  46      -0.00000000
  47      -0.00000000
  48       0.74287317
  49       0.00000000
  50       0.00000000
  51      -1.09847698
  52      -0.00000000
  53       0.00000000
  54       0.63529211
  55      -0.00000000
  56      -0.00000000
  57       1.04278777
  58      -0.06070016
  59      -0.06070016
  60       0.00000000
  61       0.00000000
  62      -0.00000000
  63      -0.54834648
  64      -0.29142666
  65      -0.29142666
  66      -0.00000000
  67      -0.00000000
  68       0.00000000
Ene=     2.95507E-02
Spin= Alpha
Occup=   0.0000000000
   1      -0.47701555
   2      33.33376647
   3      -0.26882145
   4      -0.61939877
   5       0.25230336
   6       0.00937121
   7       0.01860940
   8      -0.01251377
   9      -0.00046678
  10      -0.00004881
  11       0.28848697
  12       0.00000000
  13      -0.00000000
  14      14.78874191
  15      -0.00000000
  16      -0.00000000
  17      -2.54527940
  18       0.00000000
  19       0.00000000
  20       0.69934165
  21      -0.00000000
  22       0.00000000
  23       0.34688932
  24       0.28951046
  25       0.28951046
  26       0.00000000
  27      -0.00000000
  28      -0.00000000
  29       4.06428091
  30       0.81120605
  31       0.81120605
  32      -0.00000000
  33      -0.00000000
  34      -0.00000000
  35       0.47701555
  36     -33.33376647
  37       0.26882145
  38       0.61939877
  39      -0.25230336
  40      -0.00937121
  41      -0.01860940
  42       0.01251377
  43       0.00046678
  44       0.00004881
  45       0.28848697
  46      -0.00000000
  47       0.00000000
  48      14.78874191
  49       0.00000000
  50       0.00000000
  51      -2.54527940
  52      -0.00000000
  53      -0.00000000
  54       0.69934165
  55       0.00000000
  56       0.00000000
  57      -0.34688932
  58      -0.28951046
  59      -0.28951046
  60       0.00000000
  61      -0.00000000
  62      -0.00000000
  63      -4.06428091
  64      -0.81120605
  65      -0.81120605
  66      -0.00000000
  67      -0.00000000
  68       0.00000000
Ene=     3.04820E-02
Spin= Alpha
Occup=   0.0000000000
   1       5.51788699
   2       2.41073453
   3      -4.76496191
   4       2.08171216
   5      -0.47939288
   6      -0.09654875
   7      -0.02491182
   8       0.02516094
   9       0.00264228
  10      -0.00014159
  11      -4.07788487
  12      -0.00000000