[Molden Format]
[Title]
 Molden2AIM, Version 3.1.0 (02/25/2015)           Time: Thu Oct 17 19:54:31 2024

[Atoms] AU
E+       1       4     0.00000000     0.00000000     0.00000000
E+       2       4    33.80000000     0.00000000     0.00000000
[GTO]
    1 0
 S   1 1.0
    0.1000000000D-03      0.1000000000D+01
 S   1 1.0
    0.3000000000D-03      0.1000000000D+01
 S   1 1.0
    0.9000000000D-03      0.1000000000D+01
 S   1 1.0
    0.2700000000D-02      0.1000000000D+01
 S   1 1.0
    0.8100000000D-02      0.1000000000D+01
 S   1 1.0
    0.2430000000D-01      0.1000000000D+01
 S   1 1.0
    0.7290000000D-01      0.1000000000D+01
 S   1 1.0
    0.2187000000D+00      0.1000000000D+01
 S   1 1.0
    0.6561000000D+00      0.1000000000D+01
 S   1 1.0
    0.1968300000D+01      0.1000000000D+01
 P   1 1.0
    0.1000000000D-03      0.1000000000D+01
 P   1 1.0
    0.3000000000D-03      0.1000000000D+01
 P   1 1.0
    0.9000000000D-03      0.1000000000D+01
 P   1 1.0
    0.2700000000D-02      0.1000000000D+01
 D   1 1.0
    0.1000000000D-03      0.1000000000D+01
 D   1 1.0
    0.3000000000D-03      0.1000000000D+01

    2 0
 S   1 1.0
    0.1000000000D-03      0.1000000000D+01
 S   1 1.0
    0.3000000000D-03      0.1000000000D+01
 S   1 1.0
    0.9000000000D-03      0.1000000000D+01
 S   1 1.0
    0.2700000000D-02      0.1000000000D+01
 S   1 1.0
    0.8100000000D-02      0.1000000000D+01
 S   1 1.0
    0.2430000000D-01      0.1000000000D+01
 S   1 1.0
    0.7290000000D-01      0.1000000000D+01
 S   1 1.0
    0.2187000000D+00      0.1000000000D+01
 S   1 1.0
    0.6561000000D+00      0.1000000000D+01
 S   1 1.0
    0.1968300000D+01      0.1000000000D+01
 P   1 1.0
    0.1000000000D-03      0.1000000000D+01
 P   1 1.0
    0.3000000000D-03      0.1000000000D+01
 P   1 1.0
    0.9000000000D-03      0.1000000000D+01
 P   1 1.0
    0.2700000000D-02      0.1000000000D+01
 D   1 1.0
    0.1000000000D-03      0.1000000000D+01
 D   1 1.0
    0.3000000000D-03      0.1000000000D+01


[MO]
 Ene=         -0.00372282
 Spin= Alpha
 Occup=        1.00000000
    1       -0.0766804800
    2        0.0673836300
    3        0.0002819200
    4        0.2322291700
    5        0.2724863600
    6        0.1885993900
    7        0.1188059100
    8       -0.0958103400
    9       -0.0065014200
   10        0.0000853600
   11        0.2744368500
   12       -0.0000000000
   13       -0.0000000000
   14       -0.0944692900
   15        0.0000000000
   16        0.0000000000
   17        0.0539814600
   18       -0.0000000000
   19        0.0000000000
   20       -0.0139298300
   21        0.0000000000
   22       -0.0000000000
   23        0.0798451900
   24       -0.0024297100
   25       -0.0024297100
   26       -0.0000000000
   27       -0.0000000000
   28       -0.0000000000
   29       -0.0498515000
   30       -0.0100309400
   31       -0.0100309400
   32        0.0000000000
   33       -0.0000000000
   34        0.0000000000
   35       -0.0766804800
   36        0.0673836300
   37        0.0002819200
   38        0.2322291700
   39        0.2724863600
   40        0.1885993900
   41        0.1188059100
   42       -0.0958103400
   43       -0.0065014200
   44        0.0000853600
   45       -0.2744368500
   46        0.0000000000
   47        0.0000000000
   48        0.0944692900
   49       -0.0000000000
   50        0.0000000000
   51       -0.0539814600
   52        0.0000000000
   53       -0.0000000000
   54        0.0139298300
   55       -0.0000000000
   56        0.0000000000
   57        0.0798451900
   58       -0.0024297100
   59       -0.0024297100
   60       -0.0000000000
   61       -0.0000000000
   62        0.0000000000
   63       -0.0498515000
   64       -0.0100309400
   65       -0.0100309400
   66        0.0000000000
   67        0.0000000000
   68        0.0000000000
 Ene=         -0.00319384
 Spin= Alpha
 Occup=        0.00000000
    1       -0.0022031500
    2       -0.0082915900
    3       -0.0415121400
    4       -0.3049859000
    5       -0.2702062700
    6       -0.2084443100
    7       -0.1221323800
    8        0.1000513800
    9        0.0070861800
   10       -0.0001311500
   11        0.0112342700
   12       -0.0000000000
   13        0.0000000000
   14        0.0203234900
   15        0.0000000000
   16       -0.0000000000
   17       -0.0758302200
   18       -0.0000000000
   19        0.0000000000
   20        0.0004083400
   21        0.0000000000
   22       -0.0000000000
   23        0.0173751600
   24        0.0086113300
   25        0.0086113300
   26       -0.0000000000
   27        0.0000000000
   28        0.0000000000
   29        0.0296689500
   30        0.0383657000
   31        0.0383657000
   32        0.0000000000
   33       -0.0000000000
   34       -0.0000000000
   35        0.0022031500
   36        0.0082915900
   37        0.0415121400
   38        0.3049859000
   39        0.2702062700
   40        0.2084443100
   41        0.1221323800
   42       -0.1000513800
   43       -0.0070861800
   44        0.0001311500
   45        0.0112342700
   46        0.0000000000
   47       -0.0000000000
   48        0.0203234900
   49       -0.0000000000
   50        0.0000000000
   51       -0.0758302200
   52        0.0000000000
   53        0.0000000000
   54        0.0004083400
   55       -0.0000000000
   56        0.0000000000
   57       -0.0173751600
   58       -0.0086113300
   59       -0.0086113300
   60       -0.0000000000
   61        0.0000000000
   62        0.0000000000
   63       -0.0296689500
   64       -0.0383657000
   65       -0.0383657000
   66       -0.0000000000
   67       -0.0000000000
   68       -0.0000000000
 Ene=          0.00412255
 Spin= Alpha
 Occup=        0.00000000
    1       -0.7305337800
    2       -0.0229145200
    3        1.0704435400
    4       -0.7621739300
    5       -0.0394561700
    6       -0.1118306400
    7       -0.0358923400
    8        0.0344834900
    9        0.0033574800
   10       -0.0001723500
   11        1.6676661400
   12        0.0000000000
   13        0.0000000000
   14       -0.5232496100
   15       -0.0000000000
   16        0.0000000000
   17        0.4906808000
   18        0.0000000000
   19       -0.0000000000
   20       -0.0499575500
   21       -0.0000000000
   22        0.0000000000
   23        0.5182889200
   24        0.0239708700
   25        0.0239708700
   26        0.0000000000
   27        0.0000000000
   28        0.0000000000
   29       -0.1112477600
   30        0.0843331800
   31        0.0843331800
   32        0.0000000000
   33        0.0000000000
   34       -0.0000000000
   35       -0.7305337800
   36       -0.0229145200
   37        1.0704435400
   38       -0.7621739300
   39       -0.0394561700
   40       -0.1118306400
   41       -0.0358923400
   42        0.0344834900
   43        0.0033574800
   44       -0.0001723500
   45       -1.6676661400
   46       -0.0000000000
   47       -0.0000000000
   48        0.5232496100
   49        0.0000000000
   50       -0.0000000000
   51       -0.4906808000
   52       -0.0000000000
   53        0.0000000000
   54        0.0499575500
   55        0.0000000000
   56        0.0000000000
   57        0.5182889200
   58        0.0239708700
   59        0.0239708700
   60        0.0000000000
   61        0.0000000000
   62       -0.0000000000
   63       -0.1112477600
   64        0.0843331800
   65        0.0843331800
   66        0.0000000000
   67        0.0000000000
   68        0.0000000000
 Ene=          0.00540583
 Spin= Alpha
 Occup=        0.00000000
    1       -0.0000000000
    2       -0.0000000000
    3       -0.0000000000
    4       -0.0000000000
    5        0.0000000000
    6        0.0000000000
    7       -0.0000000000
    8        0.0000000000
    9       -0.0000000000
   10        0.0000000000
   11        0.0000000000
   12       -0.0099499700
   13       -0.0248704600
   14        0.0000000000
   15        0.0325864800
   16        0.0814515900
   17        0.0000000000
   18       -0.1180933900
   19       -0.2951805200
   20       -0.0000000000
   21       -0.1375567700
   22       -0.3438302300
   23        0.0000000000
   24       -0.0000000000
   25       -0.0000000000
   26        0.0002113500
   27        0.0005282700
   28       -0.0000000000
   29       -0.0000000000
   30       -0.0000000000
   31       -0.0000000000
   32       -0.0100112800
   33       -0.0250237100
   34        0.0000000000
   35       -0.0000000000
   36       -0.0000000000
   37        0.0000000000
   38       -0.0000000000
   39        0.0000000000
   40        0.0000000000
   41       -0.0000000000
   42        0.0000000000
   43       -0.0000000000
   44       -0.0000000000
   45       -0.0000000000
   46       -0.0099499700
   47       -0.0248704600
   48        0.0000000000
   49        0.0325864800
   50        0.0814515900
   51       -0.0000000000
   52       -0.1180933900
   53       -0.2951805200
   54       -0.0000000000
   55       -0.1375567700
   56       -0.3438302300
   57        0.0000000000
   58        0.0000000000
   59        0.0000000000
   60       -0.0002113500
   61       -0.0005282700
   62        0.0000000000
   63        0.0000000000
   64        0.0000000000
   65        0.0000000000
   66        0.0100112800
   67        0.0250237100
   68       -0.0000000000
 Ene=          0.00540583
 Spin= Alpha
 Occup=        0.00000000
    1       -0.0000000000
    2       -0.0000000000
    3        0.0000000000
    4       -0.0000000000
    5       -0.0000000000
    6       -0.0000000000
    7        0.0000000000
    8       -0.0000000000
    9        0.0000000000
   10       -0.0000000000
   11        0.0000000000
   12        0.0248704600
   13       -0.0099499700
   14        0.0000000000
   15       -0.0814515900
   16        0.0325864800
   17        0.0000000000
   18        0.2951805200
   19       -0.1180933900
   20        0.0000000000
   21        0.3438302300
   22       -0.1375567700
   23        0.0000000000
   24        0.0000000000
   25        0.0000000000
   26       -0.0005282700
   27        0.0002113500
   28        0.0000000000
   29        0.0000000000
   30       -0.0000000000
   31       -0.0000000000
   32        0.0250237100
   33       -0.0100112800
   34        0.0000000000
   35       -0.0000000000
   36       -0.0000000000
   37       -0.0000000000
   38        0.0000000000
   39       -0.0000000000
   40        0.0000000000
   41       -0.0000000000
   42        0.0000000000
   43       -0.0000000000
   44        0.0000000000
   45       -0.0000000000
   46        0.0248704600
   47       -0.0099499700
   48       -0.0000000000
   49       -0.0814515900
   50        0.0325864800
   51        0.0000000000
   52        0.2951805200
   53       -0.1180933900
   54       -0.0000000000
   55        0.3438302300
   56       -0.1375567700
   57        0.0000000000
   58        0.0000000000
   59       -0.0000000000
   60        0.0005282700
   61       -0.0002113500
   62        0.0000000000
   63        0.0000000000
   64        0.0000000000
   65        0.0000000000
   66       -0.0250237100
   67        0.0100112800
   68       -0.0000000000
 Ene=          0.00788400
 Spin= Alpha
 Occup=        0.00000000
    1        0.0000000000
    2       -0.0000000000
    3        0.0000000000
    4        0.0000000000
    5       -0.0000000000
    6       -0.0000000000
    7        0.0000000000
    8       -0.0000000000
    9        0.0000000000
   10       -0.0000000000
   11        0.0000000000
   12       -0.9742000900
   13       -0.1448476500
   14       -0.0000000000
   15        0.1593282000
   16        0.0236895000
   17        0.0000000000
   18       -0.1621988400
   19       -0.0241163200
   20       -0.0000000000
   21       -0.7159446000
   22       -0.1064492700
   23       -0.0000000000
   24       -0.0000000000
   25       -0.0000000000
   26       -0.1617384100
   27       -0.0240478600
   28        0.0000000000
   29       -0.0000000000
   30       -0.0000000000
   31       -0.0000000000
   32        0.0248339600
   33        0.0036924000
   34       -0.0000000000
   35       -0.0000000000
   36        0.0000000000
   37       -0.0000000000
   38       -0.0000000000
   39        0.0000000000
   40       -0.0000000000
   41        0.0000000000
   42       -0.0000000000
   43        0.0000000000
   44       -0.0000000000
   45        0.0000000000
   46        0.9742000900
   47        0.1448476500
   48       -0.0000000000
   49       -0.1593282000
   50       -0.0236895000
   51        0.0000000000
   52        0.1621988400
   53        0.0241163200
   54        0.0000000000
   55        0.7159446000
   56        0.1064492700
   57       -0.0000000000
   58        0.0000000000
   59        0.0000000000
   60       -0.1617384100
   61       -0.0240478600
   62       -0.0000000000
   63        0.0000000000
   64        0.0000000000
   65        0.0000000000
   66        0.0248339600
   67        0.0036924000
   68        0.0000000000
 Ene=          0.00788400
 Spin= Alpha
 Occup=        0.00000000
    1        0.0000000000
    2       -0.0000000000
    3        0.0000000000
    4       -0.0000000000
    5       -0.0000000000
    6       -0.0000000000
    7       -0.0000000000
    8        0.0000000000
    9        0.0000000000
   10       -0.0000000000
   11       -0.0000000000
   12        0.1448476500
   13       -0.9742000900
   14       -0.0000000000
   15       -0.0236895000
   16        0.1593282000
   17        0.0000000000
   18        0.0241163200
   19       -0.1621988400
   20        0.0000000000
   21        0.1064492700
   22       -0.7159446000
   23       -0.0000000000
   24       -0.0000000000
   25       -0.0000000000
   26        0.0240478600
   27       -0.1617384100
   28       -0.0000000000
   29       -0.0000000000
   30        0.0000000000
   31        0.0000000000
   32       -0.0036924000
   33        0.0248339600
   34        0.0000000000
   35        0.0000000000
   36        0.0000000000
   37       -0.0000000000
   38        0.0000000000
   39        0.0000000000
   40        0.0000000000
   41        0.0000000000
   42       -0.0000000000
   43       -0.0000000000
   44        0.0000000000
   45        0.0000000000
   46       -0.1448476500
   47        0.9742000900
   48       -0.0000000000
   49        0.0236895000
   50       -0.1593282000
   51        0.0000000000
   52       -0.0241163200
   53        0.1621988400
   54        0.0000000000
   55       -0.1064492700
   56        0.7159446000
   57       -0.0000000000
   58        0.0000000000
   59        0.0000000000
   60        0.0240478600
   61       -0.1617384100
   62        0.0000000000
   63        0.0000000000
   64        0.0000000000
   65        0.0000000000
   66       -0.0036924000
   67        0.0248339600
   68       -0.0000000000
 Ene=          0.00868994
 Spin= Alpha
 Occup=        0.00000000
    1        0.0235474900
    2       -0.0084266900
    3       -3.1983058700
    4       -0.1502582000
    5        0.5513669900
    6        0.0190413800
    7        0.0806101400
    8       -0.0532221500
    9       -0.0016921400
   10       -0.0002354400
   11       -0.1271680100
   12        0.0000000000
   13        0.0000000000
   14        0.0322930700
   15       -0.0000000000
   16       -0.0000000000
   17       -1.1949729300
   18        0.0000000000
   19        0.0000000000
   20       -0.2262291700
   21       -0.0000000000
   22       -0.0000000000
   23       -0.0987672100
   24       -0.1866602400
   25       -0.1866602400
   26        0.0000000000
   27        0.0000000000
   28        0.0000000000
   29       -0.2605296000
   30       -0.1063286200
   31       -0.1063286200
   32       -0.0000000000
   33       -0.0000000000
   34       -0.0000000000
   35       -0.0235474900
   36        0.0084266900
   37        3.1983058700
   38        0.1502582000
   39       -0.5513669900
   40       -0.0190413800
   41       -0.0806101400
   42        0.0532221500
   43        0.0016921400
   44        0.0002354400
   45       -0.1271680100
   46       -0.0000000000
   47       -0.0000000000
   48        0.0322930700
   49        0.0000000000
   50        0.0000000000
   51       -1.1949729300
   52       -0.0000000000
   53        0.0000000000
   54       -0.2262291700
   55        0.0000000000
   56        0.0000000000
   57        0.0987672100
   58        0.1866602400
   59        0.1866602400
   60        0.0000000000
   61        0.0000000000
   62       -0.0000000000
   63        0.2605296000
   64        0.1063286200
   65        0.1063286200
   66       -0.0000000000
   67       -0.0000000000
   68        0.0000000000
 Ene=          0.00912698
 Spin= Alpha
 Occup=        0.00000000
    1        0.2972210000
    2       -0.2372018500
    3       -0.3025604400
    4        0.5133981900
    5       -0.2830619500
    6        0.0458345500
    7       -0.0330659900
    8        0.0163326800
    9       -0.0006262200
   10        0.0002354200
   11       -1.2188075500
   12        0.0000000000
   13       -0.0000000000
   14        0.3458105200
   15        0.0000000000
   16        0.0000000000
   17       -0.3478277600
   18       -0.0000000000
   19       -0.0000000000
   20        0.7005558700
   21        0.0000000000
   22       -0.0000000000
   23       -0.3463427000
   24        0.0172378400
   25        0.0172378400
   26        0.0000000000
   27       -0.0000000000
   28       -0.0000000000
   29        0.1890636900
   30        0.0578060500
   31        0.0578060500
   32        0.0000000000
   33        0.0000000000
   34        0.0000000000
   35        0.2972210000
   36       -0.2372018500
   37       -0.3025604400
   38        0.5133981900
   39       -0.2830619500
   40        0.0458345500
   41       -0.0330659900
   42        0.0163326800
   43       -0.0006262200
   44        0.0002354200
   45        1.2188075500
   46       -0.0000000000
   47        0.0000000000
   48       -0.3458105200
   49       -0.0000000000
   50       -0.0000000000
   51        0.3478277600
   52        0.0000000000
   53        0.0000000000
   54       -0.7005558700
   55       -0.0000000000
   56       -0.0000000000
   57       -0.3463427000
   58        0.0172378400
   59        0.0172378400
   60        0.0000000000
   61       -0.0000000000
   62        0.0000000000
   63        0.1890636900
   64        0.0578060500
   65        0.0578060500
   66        0.0000000000
   67        0.0000000000
   68       -0.0000000000
 Ene=          0.01250850
 Spin= Alpha
 Occup=        0.00000000
    1        0.3403299400
    2       -0.3002848900
    3       -0.3098774400
    4        1.6714083100
    5       -1.0274158000
    6        0.0154028000
    7       -0.1181322000
    8        0.0735532200
    9        0.0014749900
   10        0.0004512100
   11       -1.6493846900
   12        0.0000000000
   13       -0.0000000000
   14        0.3051201400
   15        0.0000000000
   16       -0.0000000000
   17       -0.4836539200
   18       -0.0000000000
   19        0.0000000000
   20       -0.0125511500
   21        0.0000000000
   22       -0.0000000000
   23       -0.4564242200
   24        0.0313112300
   25        0.0313112300
   26        0.0000000000
   27       -0.0000000000
   28       -0.0000000000
   29        0.1966459100
   30        0.1120762700
   31        0.1120762700
   32       -0.0000000000
   33        0.0000000000
   34        0.0000000000
   35        0.3403299400
   36       -0.3002848900
   37       -0.3098774400
   38        1.6714083100
   39       -1.0274158000
   40        0.0154028000
   41       -0.1181322000
   42        0.0735532200
   43        0.0014749900
   44        0.0004512100
   45        1.6493846900
   46       -0.0000000000
   47        0.0000000000
   48       -0.3051201400
   49        0.0000000000
   50       -0.0000000000
   51        0.4836539200
   52       -0.0000000000
   53        0.0000000000
   54        0.0125511500
   55        0.0000000000
   56       -0.0000000000
   57       -0.4564242200
   58        0.0313112300
   59        0.0313112300
   60        0.0000000000
   61       -0.0000000000
   62        0.0000000000
   63        0.1966459100
   64        0.1120762700
   65        0.1120762700
   66       -0.0000000000
   67       -0.0000000000
   68       -0.0000000000
 Ene=          0.01251050
 Spin= Alpha
 Occup=        0.00000000
    1       -0.0000000000
    2        0.0000000000
    3        0.0000000000
    4       -0.0000000000
    5        0.0000000000
    6       -0.0000000000
    7        0.0000000000
    8       -0.0000000000
    9       -0.0000000000
   10       -0.0000000000
   11        0.0000000000
   12       -0.0294076300
   13        0.0576331300
   14       -0.0000000000
   15        0.0999580400
   16       -0.1958979700
   17        0.0000000000
   18       -0.4344298200
   19        0.8513964100
   20        0.0000000000
   21        0.4234922700
   22       -0.8299609700
   23        0.0000000000
   24       -0.0000000000
   25       -0.0000000000
   26       -0.0004661200
   27        0.0009135100
   28       -0.0000000000
   29       -0.0000000000
   30       -0.0000000000
   31       -0.0000000000
   32       -0.0278157100
   33        0.0545132900
   34       -0.0000000000
   35       -0.0000000000
   36        0.0000000000
   37        0.0000000000
   38       -0.0000000000
   39        0.0000000000
   40       -0.0000000000
   41        0.0000000000
   42       -0.0000000000
   43       -0.0000000000
   44       -0.0000000000
   45       -0.0000000000
   46       -0.0294076300
   47        0.0576331300
   48        0.0000000000
   49        0.0999580400
   50       -0.1958979700
   51       -0.0000000000
   52       -0.4344298200
   53        0.8513964100
   54       -0.0000000000
   55        0.4234922700
   56       -0.8299609700
   57        0.0000000000
   58       -0.0000000000
   59       -0.0000000000
   60        0.0004661200
   61       -0.0009135100
   62       -0.0000000000
   63       -0.0000000000
   64       -0.0000000000
   65       -0.0000000000
   66        0.0278157100
   67       -0.0545132900
   68        0.0000000000
 Ene=          0.01251050
 Spin= Alpha
 Occup=        0.00000000
    1        0.0000000000
    2        0.0000000000
    3        0.0000000000
    4       -0.0000000000
    5        0.0000000000
    6        0.0000000000
    7        0.0000000000
    8       -0.0000000000
    9       -0.0000000000
   10        0.0000000000
   11       -0.0000000000
   12       -0.0576331300
   13       -0.0294076300
   14       -0.0000000000
   15        0.1958979700
   16        0.0999580400
   17        0.0000000000
   18       -0.8513964100
   19       -0.4344298200
   20        0.0000000000
   21        0.8299609700
   22        0.4234922700
   23       -0.0000000000
   24        0.0000000000
   25       -0.0000000000
   26       -0.0009135100
   27       -0.0004661200
   28        0.0000000000
   29       -0.0000000000
   30       -0.0000000000
   31       -0.0000000000
   32       -0.0545132900
   33       -0.0278157100
   34       -0.0000000000
   35        0.0000000000
   36        0.0000000000
   37       -0.0000000000
   38       -0.0000000000
   39        0.0000000000
   40       -0.0000000000
   41        0.0000000000
   42       -0.0000000000
   43        0.0000000000
   44       -0.0000000000
   45        0.0000000000
   46       -0.0576331300
   47       -0.0294076300
   48        0.0000000000
   49        0.1958979700
   50        0.0999580400
   51       -0.0000000000
   52       -0.8513964100
   53       -0.4344298200
   54        0.0000000000
   55        0.8299609700
   56        0.4234922700
   57       -0.0000000000
   58       -0.0000000000
   59        0.0000000000
   60        0.0009135100
   61        0.0004661200
   62       -0.0000000000
   63       -0.0000000000
   64       -0.0000000000
   65       -0.0000000000
   66        0.0545132900
   67        0.0278157100
   68        0.0000000000
 Ene=          0.01303550
 Spin= Alpha
 Occup=        0.00000000
    1       -0.0174658100
    2       -0.0102041000
    3        1.7164799400
    4       -0.1059432900
    5        0.0105266100
    6        0.0771970300
    7        0.0096273500
    8       -0.0138593400
    9       -0.0019969100
   10        0.0001589600
   11        0.0929596800
   12        0.0000000000
   13       -0.0000000000
   14        0.0176097800
   15        0.0000000000
   16        0.0000000000
   17        0.5332570700
   18        0.0000000000
   19        0.0000000000
   20        1.1826031000
   21       -0.0000000000
   22       -0.0000000000
   23        0.0902399100
   24        0.1223240200
   25        0.1223240200
   26        0.0000000000
   27       -0.0000000000
   28       -0.0000000000
   29        0.1995077300
   30        0.1310022900
   31        0.1310022900
   32        0.0000000000
   33        0.0000000000
   34        0.0000000000
   35        0.0174658100
   36        0.0102041000
   37       -1.7164799400
   38        0.1059432900
   39       -0.0105266100
   40       -0.0771970300
   41       -0.0096273500
   42        0.0138593400
   43        0.0019969100
   44       -0.0001589600
   45        0.0929596800
   46       -0.0000000000
   47        0.0000000000
   48        0.0176097800
   49       -0.0000000000
   50       -0.0000000000
   51        0.5332570700
   52        0.0000000000
   53        0.0000000000
   54        1.1826031000
   55       -0.0000000000
   56       -0.0000000000
   57       -0.0902399100
   58       -0.1223240200
   59       -0.1223240200
   60        0.0000000000
   61       -0.0000000000
   62        0.0000000000
   63       -0.1995077300
   64       -0.1310022900
   65       -0.1310022900
   66        0.0000000000
   67        0.0000000000
   68       -0.0000000000
 Ene=          0.01766060
 Spin= Alpha
 Occup=        0.00000000
    1        0.0112940000
    2       -0.0394542800
    3       -5.0669551000
    4        2.9894133700
    5       -1.3444301700
    6        0.0984297700
    7       -0.1177017300
    8        0.0652319100
    9       -0.0003262300
   10        0.0006345700
   11       -0.0642336300
   12        0.0000000000
   13        0.0000000000
   14        0.0701345500
   15       -0.0000000000
   16       -0.0000000000
   17       -1.9448107100
   18        0.0000000000
   19        0.0000000000
   20        0.4496421800
   21       -0.0000000000
   22       -0.0000000000
   23       -0.0070817000
   24       -0.1244172900
   25       -0.1244172900
   26        0.0000000000
   27        0.0000000000
   28        0.0000000000
   29       -0.1422532800
   30        0.0447521200
   31        0.0447521200
   32       -0.0000000000
   33       -0.0000000000
   34       -0.0000000000
   35       -0.0112940000
   36        0.0394542800
   37        5.0669551000
   38       -2.9894133700
   39        1.3444301700
   40       -0.0984297700
   41        0.1177017300
   42       -0.0652319100
   43        0.0003262300
   44       -0.0006345700
   45       -0.0642336300
   46       -0.0000000000
   47       -0.0000000000
   48        0.0701345500
   49        0.0000000000
   50        0.0000000000
   51       -1.9448107100
   52       -0.0000000000
   53       -0.0000000000
   54        0.4496421800
   55        0.0000000000
   56        0.0000000000
   57        0.0070817000
   58        0.1244172900
   59        0.1244172900
   60        0.0000000000
   61        0.0000000000
   62       -0.0000000000
   63        0.1422532800
   64       -0.0447521200
   65       -0.0447521200
   66       -0.0000000000
   67       -0.0000000000
   68        0.0000000000
 Ene=          0.01859220
 Spin= Alpha
 Occup=        0.00000000
    1       -0.0000000000
    2        0.0000000000
    3        0.0000000000
    4       -0.0000000000
    5        0.0000000000
    6        0.0000000000
    7        0.0000000000
    8       -0.0000000000
    9       -0.0000000000
   10        0.0000000000
   11        0.0000000000
   12        9.6313169700
   13        0.1788442000
   14        0.0000000000
   15       -2.0882218500
   16       -0.0387762500
   17        0.0000000000
   18        1.8413911600
   19        0.0341928400
   20       -0.0000000000
   21       -0.8740434600
   22       -0.0162301400
   23        0.0000000000
   24        0.0000000000
   25        0.0000000000
   26        1.6115311200
   27        0.0299245700
   28       -0.0000000000
   29        0.0000000000
   30        0.0000000000
   31        0.0000000000
   32       -0.4250989500
   33       -0.0078936700
   34        0.0000000000
   35        0.0000000000
   36       -0.0000000000
   37       -0.0000000000
   38        0.0000000000
   39       -0.0000000000
   40        0.0000000000
   41       -0.0000000000
   42        0.0000000000
   43        0.0000000000
   44       -0.0000000000
   45       -0.0000000000
   46       -9.6313169700
   47       -0.1788442000
   48        0.0000000000
   49        2.0882218500
   50        0.0387762500
   51        0.0000000000
   52       -1.8413911600
   53       -0.0341928400
   54       -0.0000000000
   55        0.8740434600
   56        0.0162301400
   57        0.0000000000
   58       -0.0000000000
   59       -0.0000000000
   60        1.6115311200
   61        0.0299245700
   62        0.0000000000
   63       -0.0000000000
   64       -0.0000000000
   65       -0.0000000000
   66       -0.4250989500
   67       -0.0078936700
   68       -0.0000000000
 Ene=          0.01859220
 Spin= Alpha
 Occup=        0.00000000
    1        0.0000000000
    2       -0.0000000000
    3       -0.0000000000
    4        0.0000000000
    5       -0.0000000000
    6        0.0000000000
    7       -0.0000000000
    8        0.0000000000
    9        0.0000000000
   10        0.0000000000
   11       -0.0000000000
   12        0.1788442000
   13       -9.6313169700
   14       -0.0000000000
   15       -0.0387762500
   16        2.0882218500