[Molden Format]
[Atoms] AU
E+       1       4     0.00000000     0.00000000     0.00000000
E+       2       4     4.00000000     0.00000000     0.00000000
[GTO]
  1 0
s  1 1.00
   1.0000000000E-04   1.0000000000E+00
s  1 1.00
   3.0000000000E-04   1.0000000000E+00
s  1 1.00
   9.0000000000E-04   1.0000000000E+00
s  1 1.00
   2.7000000000E-03   1.0000000000E+00
s  1 1.00
   8.1000000000E-03   1.0000000000E+00
s  1 1.00
   2.4300000000E-02   1.0000000000E+00
s  1 1.00
   7.2900000000E-02   1.0000000000E+00
s  1 1.00
   2.1870000000E-01   1.0000000000E+00
s  1 1.00
   6.5610000000E-01   1.0000000000E+00
s  1 1.00
   1.9683000000E+00   1.0000000000E+00
p  1 1.00
   1.0000000000E-04   1.0000000000E+00
p  1 1.00
   3.0000000000E-04   1.0000000000E+00
p  1 1.00
   9.0000000000E-04   1.0000000000E+00
p  1 1.00
   2.7000000000E-03   1.0000000000E+00
d  1 1.00
   1.0000000000E-04   1.0000000000E+00
d  1 1.00
   3.0000000000E-04   1.0000000000E+00
 
  2 0
s  1 1.00
   1.0000000000E-04   1.0000000000E+00
s  1 1.00
   3.0000000000E-04   1.0000000000E+00
s  1 1.00
   9.0000000000E-04   1.0000000000E+00
s  1 1.00
   2.7000000000E-03   1.0000000000E+00
s  1 1.00
   8.1000000000E-03   1.0000000000E+00
s  1 1.00
   2.4300000000E-02   1.0000000000E+00
s  1 1.00
   7.2900000000E-02   1.0000000000E+00
s  1 1.00
   2.1870000000E-01   1.0000000000E+00
s  1 1.00
   6.5610000000E-01   1.0000000000E+00
s  1 1.00
   1.9683000000E+00   1.0000000000E+00
p  1 1.00
   1.0000000000E-04   1.0000000000E+00
p  1 1.00
   3.0000000000E-04   1.0000000000E+00
p  1 1.00
   9.0000000000E-04   1.0000000000E+00
p  1 1.00
   2.7000000000E-03   1.0000000000E+00
d  1 1.00
   1.0000000000E-04   1.0000000000E+00
d  1 1.00
   3.0000000000E-04   1.0000000000E+00
 
 
[MO]
Ene=    -2.19136E-02
Spin= Alpha
Occup=   1.0000000000
   1       0.00684878
   2       0.00783911
   3      -0.01298255
   4      -0.00678835
   5      -0.16399654
   6      -0.25855939
   7      -0.25429303
   8       0.19677198
   9       0.01394699
  10       0.00004559
  11       0.00031167
  12       0.00000000
  13      -0.00000000
  14       0.00073379
  15       0.00000000
  16      -0.00000000
  17       0.02099874
  18      -0.00000000
  19       0.00000000
  20      -0.02610890
  21       0.00000000
  22       0.00000000
  23      -0.00115624
  24      -0.00091103
  25      -0.00091103
  26       0.00000000
  27       0.00000000
  28       0.00000000
  29      -0.00291764
  30      -0.00369927
  31      -0.00369927
  32      -0.00000000
  33      -0.00000000
  34      -0.00000000
  35       0.00684878
  36       0.00783911
  37      -0.01298255
  38      -0.00678835
  39      -0.16399654
  40      -0.25855939
  41      -0.25429303
  42       0.19677198
  43       0.01394699
  44       0.00004559
  45      -0.00031167
  46      -0.00000000
  47       0.00000000
  48      -0.00073379
  49      -0.00000000
  50       0.00000000
  51      -0.02099874
  52       0.00000000
  53       0.00000000
  54       0.02610890
  55      -0.00000000
  56      -0.00000000
  57      -0.00115624
  58      -0.00091103
  59      -0.00091103
  60      -0.00000000
  61      -0.00000000
  62      -0.00000000
  63      -0.00291764
  64      -0.00369927
  65      -0.00369927
  66       0.00000000
  67       0.00000000
  68       0.00000000
Ene=     2.12017E-03
Spin= Alpha
Occup=   0.0000000000
   1       0.12804908
   2       0.31468998
   3      -1.08986321
   4       0.49844439
   5      -0.08872307
   6       0.09029510
   7       0.01028747
   8      -0.01669436
   9      -0.00315621
  10       0.00025407
  11       0.00572769
  12      -0.00000000
  13      -0.00000000
  14       0.02704154
  15       0.00000000
  16      -0.00000000
  17       0.16463391
  18      -0.00000000
  19       0.00000000
  20      -0.14191689
  21       0.00000000
  22      -0.00000000
  23      -0.01875835
  24      -0.01662685
  25      -0.01662685
  26       0.00000000
  27      -0.00000000
  28      -0.00000000
  29      -0.08362865
  30      -0.09151542
  31      -0.09151542
  32       0.00000000
  33      -0.00000000
  34       0.00000000
  35       0.12804908
  36       0.31468998
  37      -1.08986321
  38       0.49844439
  39      -0.08872307
  40       0.09029510
  41       0.01028747
  42      -0.01669436
  43      -0.00315621
  44       0.00025407
  45      -0.00572769
  46       0.00000000
  47       0.00000000
  48      -0.02704154
  49      -0.00000000
  50       0.00000000
  51      -0.16463391
  52       0.00000000
  53      -0.00000000
  54       0.14191689
  55      -0.00000000
  56       0.00000000
  57      -0.01875835
  58      -0.01662685
  59      -0.01662685
  60      -0.00000000
  61      -0.00000000
  62       0.00000000
  63      -0.08362865
  64      -0.09151542
  65      -0.09151542
  66      -0.00000000
  67      -0.00000000
  68      -0.00000000
Ene=     2.93434E-03
Spin= Alpha
Occup=   0.0000000000
   1       0.00401063
   2       0.00761840
   3      -0.07949245
   4       0.10591560
   5      -0.40705180
   6      -0.01617374
   7      -0.03938193
   8       0.01735148
   9      -0.00059212
  10       0.00027002
  11      -0.18090519
  12       0.00000000
  13       0.00000000
  14      -0.15465303
  15       0.00000000
  16       0.00000000
  17       0.78444729
  18       0.00000000
  19      -0.00000000
  20      -0.09593790
  21      -0.00000000
  22      -0.00000000
  23      -1.69615188
  24      -1.67847260
  25      -1.67847260
  26       0.00000000
  27       0.00000000
  28       0.00000000
  29      -3.24937759
  30      -3.26810215
  31      -3.26810215
  32       0.00000000
  33       0.00000000
  34      -0.00000000
  35      -0.00401063
  36      -0.00761840
  37       0.07949245
  38      -0.10591560
  39       0.40705180
  40       0.01617374
  41       0.03938193
  42      -0.01735148
  43       0.00059212
  44      -0.00027002
  45      -0.18090519
  46      -0.00000000
  47      -0.00000000
  48      -0.15465303
  49      -0.00000000
  50      -0.00000000
  51       0.78444729
  52      -0.00000000
  53       0.00000000
  54      -0.09593790
  55       0.00000000
  56       0.00000000
  57       1.69615188
  58       1.67847260
  59       1.67847260
  60       0.00000000
  61       0.00000000
  62      -0.00000000
  63       3.24937759
  64       3.26810215
  65       3.26810215
  66       0.00000000
  67       0.00000000
  68       0.00000000
Ene=     3.40786E-03
Spin= Alpha
Occup=   0.0000000000
   1      -0.00000000
   2      -0.00000000
   3      -0.00000000
   4       0.00000000
   5      -0.00000000
   6       0.00000000
   7      -0.00000000
   8       0.00000000
   9      -0.00000000
  10       0.00000000
  11       0.00000000
  12      -0.02223203
  13      -0.01378403
  14       0.00000000
  15       0.09993675
  16       0.06196154
  17      -0.00000000
  18      -0.48610431
  19      -0.30138836
  20      -0.00000000
  21      -0.00528609
  22      -0.00327742
  23      -0.00000000
  24      -0.00000000
  25      -0.00000000
  26      -0.36164183
  27      -0.22422068
  28      -0.00000000
  29      -0.00000000
  30      -0.00000000
  31      -0.00000000
  32       0.22094703
  33       0.13698883
  34       0.00000000
  35       0.00000000
  36      -0.00000000
  37       0.00000000
  38       0.00000000
  39       0.00000000
  40      -0.00000000
  41      -0.00000000
  42       0.00000000
  43       0.00000000
  44      -0.00000000
  45      -0.00000000
  46      -0.02223203
  47      -0.01378403
  48      -0.00000000
  49       0.09993675
  50       0.06196154
  51       0.00000000
  52      -0.48610431
  53      -0.30138836
  54      -0.00000000
  55      -0.00528609
  56      -0.00327742
  57       0.00000000
  58       0.00000000
  59       0.00000000
  60       0.36164183
  61       0.22422068
  62       0.00000000
  63       0.00000000
  64       0.00000000
  65       0.00000000
  66      -0.22094703
  67      -0.13698883
  68      -0.00000000
Ene=     3.40786E-03
Spin= Alpha
Occup=   0.0000000000
   1      -0.00000000
   2      -0.00000000
   3      -0.00000000
   4       0.00000000
   5       0.00000000
   6       0.00000000
   7       0.00000000
   8      -0.00000000
   9       0.00000000
  10      -0.00000000
  11       0.00000000
  12       0.01378403
  13      -0.02223203
  14      -0.00000000
  15      -0.06196154
  16       0.09993675
  17      -0.00000000
  18       0.30138836
  19      -0.48610431
  20       0.00000000
  21       0.00327742
  22      -0.00528609
  23      -0.00000000
  24      -0.00000000
  25      -0.00000000
  26       0.22422068
  27      -0.36164183
  28       0.00000000
  29      -0.00000000
  30      -0.00000000
  31      -0.00000000
  32      -0.13698883
  33       0.22094703
  34       0.00000000
  35       0.00000000
  36       0.00000000
  37       0.00000000
  38      -0.00000000
  39      -0.00000000
  40      -0.00000000
  41      -0.00000000
  42       0.00000000
  43      -0.00000000
  44       0.00000000
  45      -0.00000000
  46       0.01378403
  47      -0.02223203
  48       0.00000000
  49      -0.06196154
  50       0.09993675
  51       0.00000000
  52       0.30138836
  53      -0.48610431
  54      -0.00000000
  55       0.00327742
  56      -0.00528609
  57       0.00000000
  58       0.00000000
  59       0.00000000
  60      -0.22422068
  61       0.36164183
  62      -0.00000000
  63       0.00000000
  64       0.00000000
  65       0.00000000
  66       0.13698883
  67      -0.22094703
  68      -0.00000000
Ene=     6.58636E-03
Spin= Alpha
Occup=   0.0000000000
   1       0.00000000
   2       0.00000000
   3      -0.00000000
   4      -0.00000000
   5      -0.00000000
   6      -0.00000000
   7      -0.00000000
   8       0.00000000
   9       0.00000000
  10       0.00000000
  11       0.00000000
  12      -0.00000294
  13       0.00047053
  14       0.00000000
  15       0.00000776
  16      -0.00124374
  17       0.00000000
  18      -0.04810774
  19       7.70687768
  20       0.00000000
  21      -0.00768671
  22       1.23141372
  23       0.00000000
  24       0.00000000
  25       0.00000000
  26       0.00022661
  27      -0.03630321
  28      -0.00000000
  29       0.00000000
  30       0.00000000
  31       0.00000000
  32      -0.00067049
  33       0.10741291
  34       0.00000000
  35       0.00000000
  36       0.00000000
  37      -0.00000000
  38      -0.00000000
  39      -0.00000000
  40       0.00000000
  41       0.00000000
  42      -0.00000000
  43      -0.00000000
  44       0.00000000
  45       0.00000000
  46       0.00000294
  47      -0.00047053
  48      -0.00000000
  49      -0.00000776
  50       0.00124374
  51      -0.00000000
  52       0.04810774
  53      -7.70687768
  54      -0.00000000
  55       0.00768671
  56      -1.23141372
  57      -0.00000000
  58      -0.00000000
  59      -0.00000000
  60       0.00022661
  61      -0.03630321
  62       0.00000000
  63      -0.00000000
  64      -0.00000000
  65      -0.00000000
  66      -0.00067049
  67       0.10741291
  68      -0.00000000
Ene=     6.58636E-03
Spin= Alpha
Occup=   0.0000000000
   1       0.00000000
   2       0.00000000
   3      -0.00000000
   4      -0.00000000
   5       0.00000000
   6      -0.00000000
   7       0.00000000
   8      -0.00000000
   9       0.00000000
  10      -0.00000000
  11       0.00000000
  12      -0.00047053
  13      -0.00000294
  14       0.00000000
  15       0.00124374
  16       0.00000776
  17       0.00000000
  18      -7.70687768
  19      -0.04810774
  20       0.00000000
  21      -1.23141372
  22      -0.00768671
  23       0.00000000
  24      -0.00000000
  25       0.00000000
  26       0.03630321
  27       0.00022661
  28      -0.00000000
  29       0.00000000
  30       0.00000000
  31      -0.00000000
  32      -0.10741291
  33      -0.00067049
  34       0.00000000
  35       0.00000000
  36       0.00000000
  37       0.00000000
  38      -0.00000000
  39      -0.00000000
  40       0.00000000
  41      -0.00000000
  42      -0.00000000
  43      -0.00000000
  44       0.00000000
  45      -0.00000000
  46       0.00047053
  47       0.00000294
  48      -0.00000000
  49      -0.00124374
  50      -0.00000776
  51      -0.00000000
  52       7.70687768
  53       0.04810774
  54      -0.00000000
  55       1.23141372
  56       0.00768671
  57      -0.00000000
  58       0.00000000
  59      -0.00000000
  60       0.03630321
  61       0.00022661
  62       0.00000000
  63      -0.00000000
  64      -0.00000000
  65      -0.00000000
  66      -0.10741291
  67      -0.00067049
  68      -0.00000000
Ene=     6.62577E-03
Spin= Alpha
Occup=   0.0000000000
   1      -0.27196356
   2      -0.57109853
   3       0.53887607
   4       0.44973800
   5       0.01493882
   6      -0.00272407
   7      -0.00089462
   8       0.00070853
   9      -0.00001812
  10       0.00001221
  11      -0.01294935
  12      -0.00000000
  13       0.00000000
  14      -0.04762024
  15      -0.00000000
  16       0.00000000
  17      -6.51182036
  18      -0.00000000
  19       0.00000000
  20      -1.14455500
  21      -0.00000000
  22       0.00000000
  23       0.07307909
  24       0.02090330
  25       0.02090330
  26       0.00000000
  27       0.00000000
  28       0.00000000
  29       0.06434839
  30       0.22320848
  31       0.22320848
  32      -0.00000000
  33       0.00000000
  34      -0.00000000
  35      -0.27196356
  36      -0.57109853
  37       0.53887607
  38       0.44973800
  39       0.01493882
  40      -0.00272407
  41      -0.00089462
  42       0.00070853
  43      -0.00001812
  44       0.00001221
  45       0.01294935
  46       0.00000000
  47      -0.00000000
  48       0.04762024
  49       0.00000000
  50      -0.00000000
  51       6.51182036
  52       0.00000000
  53      -0.00000000
  54       1.14455500
  55       0.00000000
  56      -0.00000000
  57       0.07307909
  58       0.02090330
  59       0.02090330
  60      -0.00000000
  61      -0.00000000
  62      -0.00000000
  63       0.06434839
  64       0.22320848
  65       0.22320848
  66      -0.00000000
  67       0.00000000
  68       0.00000000
Ene=     7.45574E-03
Spin= Alpha
Occup=   0.0000000000
   1       0.00331013
   2       0.00689573
   3      -0.07349569
   4       0.15659742
   5       0.04383112
   6       0.27969709
   7       0.06995221
   8      -0.03952404
   9      -0.00157777
  10      -0.00021581
  11      -0.14932780
  12       0.00000000
  13       0.00000000
  14      -0.14375183
  15       0.00000000
  16       0.00000000
  17       0.76715759
  18      -0.00000000
  19       0.00000000
  20      -0.70815797
  21      -0.00000000
  22       0.00000000
  23      -1.39822996
  24      -1.38033819
  25      -1.38033819
  26       0.00000000
  27      -0.00000000
  28       0.00000000
  29      -2.75306848
  30      -2.77236183
  31      -2.77236183
  32       0.00000000
  33       0.00000000
  34      -0.00000000
  35      -0.00331013
  36      -0.00689573
  37       0.07349569
  38      -0.15659742
  39      -0.04383112
  40      -0.27969709
  41      -0.06995221
  42       0.03952404
  43       0.00157777
  44       0.00021581
  45      -0.14932780
  46      -0.00000000
  47      -0.00000000
  48      -0.14375183
  49      -0.00000000
  50      -0.00000000
  51       0.76715759
  52       0.00000000
  53      -0.00000000
  54      -0.70815797
  55       0.00000000
  56      -0.00000000
  57       1.39822996
  58       1.38033819
  59       1.38033819
  60       0.00000000
  61       0.00000000
  62      -0.00000000
  63       2.75306848
  64       2.77236183
  65       2.77236183
  66       0.00000000
  67       0.00000000
  68       0.00000000
Ene=     8.61887E-03
Spin= Alpha
Occup=   0.0000000000
   1       0.08454410
   2      -0.14815355
   3       0.89119993
   4      -1.47536606
   5       0.65182132
   6      -0.04873163
   7       0.11778255
   8      -0.06773302
   9      -0.00089301
  10      -0.00057550
  11       0.00373942
  12       0.00000000
  13       0.00000000
  14      -0.00936004
  15      -0.00000000
  16       0.00000000
  17      -0.93943311
  18       0.00000000
  19       0.00000000
  20       0.57839698
  21      -0.00000000
  22       0.00000000
  23      -0.00781120
  24      -0.01739149
  25      -0.01739149
  26       0.00000000
  27       0.00000000
  28      -0.00000000
  29      -0.02531213
  30       0.00172202
  31       0.00172202
  32      -0.00000000
  33      -0.00000000
  34       0.00000000
  35       0.08454410
  36      -0.14815355
  37       0.89119993
  38      -1.47536606
  39       0.65182132
  40      -0.04873163
  41       0.11778255
  42      -0.06773302
  43      -0.00089301
  44      -0.00057550
  45      -0.00373942
  46      -0.00000000
  47      -0.00000000
  48       0.00936004
  49       0.00000000
  50      -0.00000000
  51       0.93943311
  52      -0.00000000
  53      -0.00000000
  54      -0.57839698
  55       0.00000000
  56      -0.00000000
  57      -0.00781120
  58      -0.01739149
  59      -0.01739149
  60      -0.00000000
  61      -0.00000000
  62       0.00000000
  63      -0.02531213
  64       0.00172202
  65       0.00172202
  66       0.00000000
  67       0.00000000
  68      -0.00000000
Ene=     8.72334E-03
Spin= Alpha
Occup=   0.0000000000
   1       0.00000000
   2      -0.00000000
   3      -0.00000000
   4       0.00000000
   5       0.00000000
   6      -0.00000000
   7       0.00000000
   8      -0.00000000
   9       0.00000000
  10       0.00000000
  11      -0.00000000
  12       0.02384731
  13       0.00078661
  14      -0.00000000
  15      -0.10924374
  16      -0.00360343
  17      -0.00000000
  18       0.61694116
  19       0.02034996
  20      -0.00000000
  21      -0.73767330
  22      -0.02433234
  23      -0.00000000
  24      -0.00000000
  25       0.00000000
  26       0.36814695
  27       0.01214342
  28      -0.00000000
  29      -0.00000000
  30       0.00000000
  31      -0.00000000
  32      -0.22126623
  33      -0.00729852
  34       0.00000000
  35      -0.00000000
  36       0.00000000
  37       0.00000000
  38       0.00000000
  39      -0.00000000
  40       0.00000000
  41      -0.00000000
  42       0.00000000
  43      -0.00000000
  44       0.00000000
  45       0.00000000
  46       0.02384731
  47       0.00078661
  48       0.00000000
  49      -0.10924374
  50      -0.00360343
  51       0.00000000
  52       0.61694116
  53       0.02034996
  54       0.00000000
  55      -0.73767330
  56      -0.02433234
  57       0.00000000
  58       0.00000000
  59      -0.00000000
  60      -0.36814695
  61      -0.01214342
  62       0.00000000
  63       0.00000000
  64       0.00000000
  65       0.00000000
  66       0.22126623
  67       0.00729852
  68      -0.00000000
Ene=     8.72334E-03
Spin= Alpha
Occup=   0.0000000000
   1       0.00000000
   2       0.00000000
   3       0.00000000
   4       0.00000000
   5      -0.00000000
   6       0.00000000
   7      -0.00000000
   8       0.00000000
   9       0.00000000
  10      -0.00000000
  11      -0.00000000
  12      -0.00078661
  13       0.02384731
  14      -0.00000000
  15       0.00360343
  16      -0.10924374
  17       0.00000000
  18      -0.02034996
  19       0.61694116
  20      -0.00000000
  21       0.02433234
  22      -0.73767330
  23      -0.00000000
  24      -0.00000000
  25      -0.00000000
  26      -0.01214342
  27       0.36814695
  28       0.00000000
  29      -0.00000000
  30       0.00000000
  31       0.00000000
  32       0.00729852
  33      -0.22126623
  34      -0.00000000
  35      -0.00000000
  36      -0.00000000
  37      -0.00000000
  38       0.00000000
  39      -0.00000000
  40       0.00000000
  41      -0.00000000
  42       0.00000000
  43       0.00000000
  44      -0.00000000
  45       0.00000000
  46      -0.00078661
  47       0.02384731
  48       0.00000000
  49       0.00360343
  50      -0.10924374
  51      -0.00000000
  52      -0.02034996
  53       0.61694116
  54      -0.00000000
  55       0.02433234
  56      -0.73767330
  57       0.00000000
  58       0.00000000
  59       0.00000000
  60       0.01214342
  61      -0.36814695
  62      -0.00000000
  63       0.00000000
  64      -0.00000000
  65      -0.00000000
  66      -0.00729852
  67       0.22126623
  68       0.00000000
Ene=     1.44611E-02
Spin= Alpha
Occup=   0.0000000000
   1      -0.00000000
   2      -0.00000000
   3       0.00000000
   4      -0.00000000
   5      -0.00000000
   6       0.00000000
   7      -0.00000000
   8       0.00000000
   9      -0.00000000
  10       0.00000000
  11      -0.00000000
  12       0.00003100
  13      -0.00034540
  14      -0.00000000
  15      -0.00002548
  16       0.00028390
  17      -0.00000000
  18       0.83567901
  19      -9.31113891
  20       0.00000000
  21      -0.54920991
  22       6.11929899
  23      -0.00000000
  24      -0.00000000
  25      -0.00000000
  26      -0.00315817
  27       0.03518833
  28       0.00000000
  29      -0.00000000
  30      -0.00000000
  31      -0.00000000
  32       0.00954999
  33      -0.10640597
  34      -0.00000000
  35      -0.00000000
  36      -0.00000000
  37       0.00000000
  38       0.00000000
  39      -0.00000000
  40       0.00000000
  41      -0.00000000
  42       0.00000000
  43      -0.00000000
  44       0.00000000
  45      -0.00000000
  46      -0.00003100
  47       0.00034540
  48       0.00000000
  49       0.00002548
  50      -0.00028390
  51       0.00000000
  52      -0.83567901
  53       9.31113891
  54      -0.00000000
  55       0.54920991
  56      -6.11929899
  57       0.00000000
  58       0.00000000
  59       0.00000000
  60      -0.00315817
  61       0.03518833
  62      -0.00000000
  63       0.00000000
  64       0.00000000
  65       0.00000000
  66       0.00954999
  67      -0.10640597
  68       0.00000000
Ene=     1.44611E-02
Spin= Alpha
Occup=   0.0000000000
   1       0.00000000
   2      -0.00000000
   3      -0.00000000
   4      -0.00000000
   5       0.00000000
   6      -0.00000000
   7       0.00000000
   8      -0.00000000
   9       0.00000000
  10      -0.00000000
  11       0.00000000
  12      -0.00034540
  13      -0.00003100
  14       0.00000000
  15       0.00028390
  16       0.00002548
  17      -0.00000000
  18      -9.31113891
  19      -0.83567901
  20       0.00000000
  21       6.11929899
  22       0.54920991
  23       0.00000000
  24       0.00000000
  25       0.00000000
  26       0.03518833
  27       0.00315817
  28       0.00000000
  29       0.00000000
  30       0.00000000
  31       0.00000000
  32      -0.10640597
  33      -0.00954999
  34       0.00000000
  35      -0.00000000
  36       0.00000000
  37       0.00000000
  38       0.00000000
  39      -0.00000000
  40       0.00000000
  41      -0.00000000
  42       0.00000000
  43      -0.00000000
  44       0.00000000
  45      -0.00000000
  46       0.00034540
  47       0.00003100
  48      -0.00000000
  49      -0.00028390
  50      -0.00002548
  51       0.00000000
  52       9.31113891
  53       0.83567901
  54      -0.00000000
  55      -6.11929899
  56      -0.54920991
  57      -0.00000000
  58      -0.00000000
  59      -0.00000000
  60       0.03518833
  61       0.00315817
  62      -0.00000000
  63      -0.00000000
  64      -0.00000000
  65      -0.00000000
  66      -0.10640597
  67      -0.00954999
  68      -0.00000000
Ene=     1.48852E-02
Spin= Alpha
Occup=   0.0000000000
   1      -0.50767465
   2      -0.90222665
   3       1.31086944
   4      -0.04857579
   5      -0.59710883
   6       0.10709092
   7      -0.06080326
   8       0.02665227
   9      -0.00154315
  10       0.00047288
  11      -0.02326675
  12       0.00000000
  13       0.00000000
  14      -0.07982879
  15      -0.00000000
  16       0.00000000
  17      -7.73604885
  18      -0.00000000
  19       0.00000000
  20       5.04357870
  21       0.00000000
  22      -0.00000000
  23       0.10445817
  24       0.05713693
  25       0.05713693
  26       0.00000000
  27       0.00000000
  28       0.00000000
  29       0.19360219
  30       0.34553510
  31       0.34553510
  32      -0.00000000
  33      -0.00000000
  34      -0.00000000
  35      -0.50767465
  36      -0.90222665
  37       1.31086944
  38      -0.04857579
  39      -0.59710883
  40       0.10709092
  41      -0.06080326
  42       0.02665227
  43      -0.00154315
  44       0.00047288
  45       0.02326675
  46      -0.00000000
  47      -0.00000000
  48       0.07982879
  49       0.00000000
  50      -0.00000000
  51       7.73604885
  52       0.00000000
  53      -0.00000000
  54      -5.04357870
  55      -0.00000000
  56       0.00000000
  57       0.10445817
  58       0.05713693
  59       0.05713693
  60      -0.00000000
  61      -0.00000000
  62      -0.00000000
  63       0.19360219
  64       0.34553510
  65       0.34553510
  66       0.00000000
  67       0.00000000
  68       0.00000000
Ene=     1.88689E-02
Spin= Alpha
Occup=   0.0000000000
   1       0.00293301
   2       0.00042219
   3      -0.00044702
   4      -0.01417865
   5       3.61642108
   6       0.14760051
   7       0.20035321
   8      -0.08963348
   9       0.00161777
  10      -0.00120120
  11      -0.13111360
  12       0.00000000
  13       0.00000000
  14       0.02148583
  15       0.00000000
  16       0.00000000
  17      -0.29124549
  18       0.00000000
  19       0.00000000
  20       0.80920332
  21      -0.00000000
  22       0.00000000
  23      -1.34274601
  24      -1.35801980
  25      -1.35801980
  26       0.00000000
  27      -0.00000000
  28      -0.00000000
  29      -1.67978930
  30      -1.66012111
  31      -1.66012111
  32      -0.00000000
  33       0.00000000
  34       0.00000000
  35      -0.00293301
  36      -0.00042219
  37       0.00044702
  38       0.01417865
  39      -3.61642108
  40      -0.14760051
  41      -0.20035321
  42       0.08963348
  43      -0.00161777
  44       0.00120120
  45      -0.13111360
  46      -0.00000000
  47      -0.00000000
  48       0.02148583
  49      -0.00000000
  50      -0.00000000
  51      -0.29124549
  52      -0.00000000
  53      -0.00000000
  54       0.80920332
  55       0.00000000
  56      -0.00000000
  57       1.34274601
  58       1.35801980
  59       1.35801980
  60      -0.00000000
  61       0.00000000
  62       0.00000000
  63       1.67978930
  64       1.66012111
  65       1.66012111
  66       0.00000000
  67       0.00000000
  68      -0.00000000
Ene=     2.50624E-02
Spin= Alpha
Occup=   0.0000000000
   1       2.95211187
   2       3.00596359
   3      -3.86064260
   4       1.49468992
   5      -0.11355198
   6      -0.15821478
   7      -0.02276202
   8       0.02977143
   9       0.00493789
  10      -0.00033907
  11       0.13272282
  12      -0.00000000
  13      -0.00000000
  14       0.29488457
  15       0.00000000
  16      -0.00000000
  17       1.31048289
  18       0.00000000
  19      -0.00000000
  20      -0.86608315
  21      -0.00000000
  22       0.00000000
  23      -0.43317871
  24      -0.44863017
  25      -0.44863017
  26      -0.00000000
  27      -0.00000000
  28      -0.00000000
  29      -1.40563035
  30      -1.40498641
  31      -1.40498641
  32       0.00000000
  33       0.00000000
  34      -0.00000000
  35       2.95211187
  36       3.00596359
  37      -3.86064260
  38       1.49468992
  39      -0.11355198
  40      -0.15821478
  41      -0.02276202
  42       0.02977143
  43       0.00493789
  44      -0.00033907
  45      -0.13272282
  46       0.00000000
  47       0.00000000
  48      -0.29488457
  49      -0.00000000
  50       0.00000000
  51      -1.31048289
  52      -0.00000000
  53       0.00000000
  54       0.86608315
  55       0.00000000
  56      -0.00000000
  57      -0.43317871
  58      -0.44863017
  59      -0.44863017
  60       0.00000000
  61       0.00000000
  62       0.00000000
  63      -1.40563035
  64      -1.40498641
  65      -1.40498641
  66      -0.00000000
  67      -0.00000000
  68       0.00000000
Ene=     3.39121E-02
Spin= Alpha
Occup=   0.0000000000
   1       0.03887197
   2       0.03390584
   3      -0.36943968
   4       0.88903787
   5      -0.82066774
   6      -0.39894674
   7      -0.02860385
   8       0.02509162
   9       0.00362482
  10      -0.00021137
  11      -1.72651612
  12       0.00000000
  13       0.00000000
  14      -0.47836698
  15       0.00000000
  16       0.00000000
  17       1.87468087
  18      -0.00000000
  19       0.00000000
  20      -0.64022563
  21       0.00000000
  22      -0.00000000
  23     -18.76416358
  24     -18.75910510
  25     -18.75910510
  26       0.00000000
  27      -0.00000000
  28       0.00000000
  29     -24.93329506
  30     -24.91093580
  31     -24.91093580
  32      -0.00000000
  33       0.00000000
  34      -0.00000000
  35      -0.03887197
  36      -0.03390584
  37       0.36943968
  38      -0.88903787
  39       0.82066774
  40       0.39894674
  41       0.02860385
  42      -0.02509162
  43      -0.00362482
  44       0.00021137
  45      -1.72651612
  46      -0.00000000
  47      -0.00000000
  48      -0.47836698
  49      -0.00000000
  50      -0.00000000
  51       1.87468087
  52       0.00000000
  53      -0.00000000
  54      -0.64022563
  55      -0.00000000
  56       0.00000000
  57      18.76416358
  58      18.75910510
  59      18.75910510
  60      -0.00000000
  61       0.00000000
  62      -0.00000000
  63      24.93329506
  64      24.91093580
  65      24.91093580
  66       0.00000000
  67       0.00000000
  68       0.00000000
Ene=     3.69979E-02
Spin= Alpha
Occup=   0.0000000000
   1       0.00000000
   2      -0.00000000
   3      -0.00000000
   4       0.00000000
   5      -0.00000000
   6      -0.00000000
   7      -0.00000000
   8       0.00000000
   9       0.00000000
  10      -0.00000000
  11      -0.00000000
  12      -0.00000000