[Molden Format]
[Title]
 Molden2AIM, Version 3.1.0 (02/25/2015)           Time: Thu Oct 17 19:55:59 2024

[Atoms] AU
E+       1       4     0.00000000     0.00000000     0.00000000
E+       2       4    53.20000000     0.00000000     0.00000000
[GTO]
    1 0
 S   1 1.0
    0.1000000000D-03      0.1000000000D+01
 S   1 1.0
    0.3000000000D-03      0.1000000000D+01
 S   1 1.0
    0.9000000000D-03      0.1000000000D+01
 S   1 1.0
    0.2700000000D-02      0.1000000000D+01
 S   1 1.0
    0.8100000000D-02      0.1000000000D+01
 S   1 1.0
    0.2430000000D-01      0.1000000000D+01
 S   1 1.0
    0.7290000000D-01      0.1000000000D+01
 S   1 1.0
    0.2187000000D+00      0.1000000000D+01
 S   1 1.0
    0.6561000000D+00      0.1000000000D+01
 S   1 1.0
    0.1968300000D+01      0.1000000000D+01
 P   1 1.0
    0.1000000000D-03      0.1000000000D+01
 P   1 1.0
    0.3000000000D-03      0.1000000000D+01
 P   1 1.0
    0.9000000000D-03      0.1000000000D+01
 P   1 1.0
    0.2700000000D-02      0.1000000000D+01
 D   1 1.0
    0.1000000000D-03      0.1000000000D+01
 D   1 1.0
    0.3000000000D-03      0.1000000000D+01

    2 0
 S   1 1.0
    0.1000000000D-03      0.1000000000D+01
 S   1 1.0
    0.3000000000D-03      0.1000000000D+01
 S   1 1.0
    0.9000000000D-03      0.1000000000D+01
 S   1 1.0
    0.2700000000D-02      0.1000000000D+01
 S   1 1.0
    0.8100000000D-02      0.1000000000D+01
 S   1 1.0
    0.2430000000D-01      0.1000000000D+01
 S   1 1.0
    0.7290000000D-01      0.1000000000D+01
 S   1 1.0
    0.2187000000D+00      0.1000000000D+01
 S   1 1.0
    0.6561000000D+00      0.1000000000D+01
 S   1 1.0
    0.1968300000D+01      0.1000000000D+01
 P   1 1.0
    0.1000000000D-03      0.1000000000D+01
 P   1 1.0
    0.3000000000D-03      0.1000000000D+01
 P   1 1.0
    0.9000000000D-03      0.1000000000D+01
 P   1 1.0
    0.2700000000D-02      0.1000000000D+01
 D   1 1.0
    0.1000000000D-03      0.1000000000D+01
 D   1 1.0
    0.3000000000D-03      0.1000000000D+01


[MO]
 Ene=          0.00209703
 Spin= Alpha
 Occup=        1.00000000
    1       -0.2116617200
    2       -0.1382264000
    3        0.3550393600
    4        0.1383404700
    5        0.1662981400
    6        0.1432653000
    7        0.0869425200
    8       -0.0707074800
    9       -0.0048874200
   10        0.0000771100
   11        0.1831983400
   12       -0.0000000000
   13       -0.0000000000
   14       -0.0577654800
   15       -0.0000000000
   16        0.0000000000
   17        0.1043046300
   18        0.0000000000
   19        0.0000000000
   20        0.1985714500
   21       -0.0000000000
   22       -0.0000000000
   23        0.0987690000
   24        0.0169962000
   25        0.0169962000
   26       -0.0000000000
   27       -0.0000000000
   28        0.0000000000
   29        0.0556951100
   30        0.0581779000
   31        0.0581779000
   32       -0.0000000000
   33        0.0000000000
   34        0.0000000000
   35       -0.2116617200
   36       -0.1382264000
   37        0.3550393600
   38        0.1383404700
   39        0.1662981400
   40        0.1432653000
   41        0.0869425200
   42       -0.0707074800
   43       -0.0048874200
   44        0.0000771100
   45       -0.1831983400
   46        0.0000000000
   47        0.0000000000
   48        0.0577654800
   49        0.0000000000
   50       -0.0000000000
   51       -0.1043046300
   52       -0.0000000000
   53        0.0000000000
   54       -0.1985714500
   55        0.0000000000
   56       -0.0000000000
   57        0.0987690000
   58        0.0169962000
   59        0.0169962000
   60       -0.0000000000
   61       -0.0000000000
   62        0.0000000000
   63        0.0556951100
   64        0.0581779000
   65        0.0581779000
   66       -0.0000000000
   67        0.0000000000
   68       -0.0000000000
 Ene=          0.00288969
 Spin= Alpha
 Occup=        0.00000000
    1       -0.0211354400
    2        1.2602651200
    3        0.0019911900
    4        0.3768346100
    5        0.1655955100
    6        0.1980999800
    7        0.1033343200
    8       -0.0869849500
    9       -0.0065513400
   10        0.0001713600
   11        0.0275204100
   12        0.0000000000
   13       -0.0000000000
   14        0.7326955800
   15        0.0000000000
   16       -0.0000000000
   17       -0.1257116800
   18        0.0000000000
   19        0.0000000000
   20        0.2623953100
   21       -0.0000000000
   22       -0.0000000000
   23        0.0227293200
   24        0.0195482300
   25        0.0195482300
   26        0.0000000000
   27       -0.0000000000
   28        0.0000000000
   29        0.2523934200
   30        0.0534546600
   31        0.0534546600
   32       -0.0000000000
   33        0.0000000000
   34       -0.0000000000
   35        0.0211354400
   36       -1.2602651200
   37       -0.0019911900
   38       -0.3768346100
   39       -0.1655955100
   40       -0.1980999800
   41       -0.1033343200
   42        0.0869849500
   43        0.0065513400
   44       -0.0001713600
   45        0.0275204100
   46       -0.0000000000
   47        0.0000000000
   48        0.7326955800
   49       -0.0000000000
   50       -0.0000000000
   51       -0.1257116800
   52        0.0000000000
   53        0.0000000000
   54        0.2623953100
   55       -0.0000000000
   56       -0.0000000000
   57       -0.0227293200
   58       -0.0195482300
   59       -0.0195482300
   60        0.0000000000
   61       -0.0000000000
   62       -0.0000000000
   63       -0.2523934200
   64       -0.0534546600
   65       -0.0534546600
   66        0.0000000000
   67       -0.0000000000
   68        0.0000000000
 Ene=          0.00621183
 Spin= Alpha
 Occup=        0.00000000
    1        0.5914186500
    2        0.1536560000
    3       -0.9055829600
    4        0.6703977800
    5        0.0893260500
    6        0.1805565800
    7        0.0713089900
    8       -0.0645314700
    9       -0.0056633800
   10        0.0002391600
   11       -0.7900590800
   12       -0.0000000000
   13        0.0000000000
   14        0.2879157100
   15        0.0000000000
   16       -0.0000000000
   17       -0.5253051400
   18       -0.0000000000
   19        0.0000000000
   20        0.1734283100
   21        0.0000000000
   22       -0.0000000000
   23       -0.3891850200
   24       -0.0255408400
   25       -0.0255408400
   26       -0.0000000000
   27        0.0000000000
   28        0.0000000000
   29       -0.0177432200
   30       -0.0829431200
   31       -0.0829431200
   32       -0.0000000000
   33       -0.0000000000
   34       -0.0000000000
   35        0.5914186500
   36        0.1536560000
   37       -0.9055829600
   38        0.6703977800
   39        0.0893260500
   40        0.1805565800
   41        0.0713089900
   42       -0.0645314700
   43       -0.0056633800
   44        0.0002391600
   45        0.7900590800
   46        0.0000000000
   47       -0.0000000000
   48       -0.2879157100
   49        0.0000000000
   50        0.0000000000
   51        0.5253051400
   52       -0.0000000000
   53       -0.0000000000
   54       -0.1734283100
   55        0.0000000000
   56        0.0000000000
   57       -0.3891850200
   58       -0.0255408400
   59       -0.0255408400
   60       -0.0000000000
   61        0.0000000000
   62       -0.0000000000
   63       -0.0177432200
   64       -0.0829431200
   65       -0.0829431200
   66        0.0000000000
   67       -0.0000000000
   68        0.0000000000
 Ene=          0.01254650
 Spin= Alpha
 Occup=        0.00000000
    1       -0.0019770300
    2       -2.9574697500
    3        0.8575499300
    4        0.2868623900
    5       -0.6008971100
    6       -0.0799022800
    7       -0.1055732400
    8        0.0754791400
    9        0.0035582100
   10        0.0001658900
   11        0.0994068100
   12       -0.0000000000
   13        0.0000000000
   14       -1.5026122600
   15        0.0000000000
   16       -0.0000000000
   17        0.2490982800
   18       -0.0000000000
   19        0.0000000000
   20        0.4322281400
   21        0.0000000000
   22       -0.0000000000
   23        0.0859550200
   24        0.0672452700
   25        0.0672452700
   26       -0.0000000000
   27        0.0000000000
   28       -0.0000000000
   29       -0.2825118100
   30        0.1260988000
   31        0.1260988000
   32        0.0000000000
   33       -0.0000000000
   34        0.0000000000
   35        0.0019770300
   36        2.9574697500
   37       -0.8575499300
   38       -0.2868623900
   39        0.6008971100
   40        0.0799022800
   41        0.1055732400
   42       -0.0754791400
   43       -0.0035582100
   44       -0.0001658900
   45        0.0994068100
   46        0.0000000000
   47       -0.0000000000
   48       -1.5026122600
   49       -0.0000000000
   50        0.0000000000
   51        0.2490982800
   52        0.0000000000
   53       -0.0000000000
   54        0.4322281400
   55       -0.0000000000
   56        0.0000000000
   57       -0.0859550200
   58       -0.0672452700
   59       -0.0672452700
   60       -0.0000000000
   61        0.0000000000
   62        0.0000000000
   63        0.2825118100
   64       -0.1260988000
   65       -0.1260988000
   66        0.0000000000
   67       -0.0000000000
   68       -0.0000000000
 Ene=          0.01401200
 Spin= Alpha
 Occup=        0.00000000
    1        0.0000000000
    2       -0.0000000000
    3        0.0000000000
    4        0.0000000000
    5       -0.0000000000
    6       -0.0000000000
    7        0.0000000000
    8       -0.0000000000
    9        0.0000000000
   10       -0.0000000000
   11       -0.0000000000
   12       -0.0505340100
   13        0.0244374200
   14       -0.0000000000
   15        0.1315259400
   16       -0.0636038000
   17        0.0000000000
   18       -0.4585247300
   19        0.2217350900
   20        0.0000000000
   21       -0.2173753300
   22        0.1051191700
   23       -0.0000000000
   24       -0.0000000000
   25       -0.0000000000
   26        0.0557447100
   27       -0.0269572300
   28        0.0000000000
   29       -0.0000000000
   30       -0.0000000000
   31       -0.0000000000
   32       -0.0931050900
   33        0.0450241000
   34        0.0000000000
   35       -0.0000000000
   36        0.0000000000
   37       -0.0000000000
   38        0.0000000000
   39       -0.0000000000
   40        0.0000000000
   41       -0.0000000000
   42        0.0000000000
   43       -0.0000000000
   44        0.0000000000
   45        0.0000000000
   46       -0.0505340100
   47        0.0244374200
   48       -0.0000000000
   49        0.1315259400
   50       -0.0636038000
   51        0.0000000000
   52       -0.4585247300
   53        0.2217350900
   54       -0.0000000000
   55       -0.2173753300
   56        0.1051191700
   57       -0.0000000000
   58        0.0000000000
   59        0.0000000000
   60       -0.0557447100
   61        0.0269572300
   62       -0.0000000000
   63        0.0000000000
   64        0.0000000000
   65        0.0000000000
   66        0.0931050900
   67       -0.0450241000
   68       -0.0000000000
 Ene=          0.01401200
 Spin= Alpha
 Occup=        0.00000000
    1       -0.0000000000
    2       -0.0000000000
    3        0.0000000000
    4       -0.0000000000
    5        0.0000000000
    6       -0.0000000000
    7        0.0000000000
    8       -0.0000000000
    9       -0.0000000000
   10       -0.0000000000
   11        0.0000000000
   12        0.0244374200
   13        0.0505340100
   14       -0.0000000000
   15       -0.0636038000
   16       -0.1315259400
   17        0.0000000000
   18        0.2217350900
   19        0.4585247300
   20       -0.0000000000
   21        0.1051191700
   22        0.2173753300
   23        0.0000000000
   24       -0.0000000000
   25       -0.0000000000
   26       -0.0269572300
   27       -0.0557447100
   28        0.0000000000
   29       -0.0000000000
   30       -0.0000000000
   31       -0.0000000000
   32        0.0450241000
   33        0.0931050900
   34       -0.0000000000
   35       -0.0000000000
   36        0.0000000000
   37       -0.0000000000
   38        0.0000000000
   39        0.0000000000
   40        0.0000000000
   41        0.0000000000
   42       -0.0000000000
   43        0.0000000000
   44       -0.0000000000
   45       -0.0000000000
   46        0.0244374200
   47        0.0505340100
   48       -0.0000000000
   49       -0.0636038000
   50       -0.1315259400
   51        0.0000000000
   52        0.2217350900
   53        0.4585247300
   54        0.0000000000
   55        0.1051191700
   56        0.2173753300
   57        0.0000000000
   58        0.0000000000
   59        0.0000000000
   60        0.0269572300
   61        0.0557447100
   62       -0.0000000000
   63        0.0000000000
   64        0.0000000000
   65        0.0000000000
   66       -0.0450241000
   67       -0.0931050900
   68        0.0000000000
 Ene=          0.01445330
 Spin= Alpha
 Occup=        0.00000000
    1       -0.3050966500
    2       -0.3748818700
    3       -0.1604456200
    4        1.2614455700
    5       -0.8436950600
    6        0.0205627000
    7       -0.1105007700
    8        0.0681582300
    9        0.0011126600
   10        0.0004510700
   11       -0.4980185000
   12       -0.0000000000
   13        0.0000000000
   14        0.1048554900
   15        0.0000000000
   16       -0.0000000000
   17       -0.5838555800
   18       -0.0000000000
   19        0.0000000000
   20        0.8091056700
   21        0.0000000000
   22       -0.0000000000
   23       -0.1425250200
   24        0.0819294200
   25        0.0819294200
   26       -0.0000000000
   27        0.0000000000
   28        0.0000000000
   29        0.2180474400
   30        0.2631390000
   31        0.2631390000
   32       -0.0000000000
   33       -0.0000000000
   34        0.0000000000
   35       -0.3050966500
   36       -0.3748818700
   37       -0.1604456200
   38        1.2614455700
   39       -0.8436950600
   40        0.0205627000
   41       -0.1105007700
   42        0.0681582300
   43        0.0011126600
   44        0.0004510700
   45        0.4980185000
   46        0.0000000000
   47       -0.0000000000
   48       -0.1048554900
   49       -0.0000000000
   50        0.0000000000
   51        0.5838555800
   52        0.0000000000
   53       -0.0000000000
   54       -0.8091056700
   55        0.0000000000
   56        0.0000000000
   57       -0.1425250200
   58        0.0819294200
   59        0.0819294200
   60       -0.0000000000
   61        0.0000000000
   62       -0.0000000000
   63        0.2180474400
   64        0.2631390000
   65        0.2631390000
   66        0.0000000000
   67       -0.0000000000
   68       -0.0000000000
 Ene=          0.01638750
 Spin= Alpha
 Occup=        0.00000000
    1       -0.0000000000
    2        0.0000000000
    3       -0.0000000000
    4        0.0000000000
    5       -0.0000000000
    6        0.0000000000
    7       -0.0000000000
    8        0.0000000000
    9        0.0000000000
   10       -0.0000000000
   11       -0.0000000000
   12       -0.0169087900
   13       -0.0173548400
   14        0.0000000000
   15       -0.0322330400
   16       -0.0330833400
   17       -0.0000000000
   18       -0.0293202200
   19       -0.0300936800
   20        0.0000000000
   21       -0.4820864200
   22       -0.4948036900
   23       -0.0000000000
   24        0.0000000000
   25        0.0000000000
   26        0.0006816000
   27        0.0006995800
   28        0.0000000000
   29        0.0000000000
   30        0.0000000000
   31        0.0000000000
   32       -0.0296083200
   33       -0.0303893800
   34       -0.0000000000
   35        0.0000000000
   36       -0.0000000000
   37        0.0000000000
   38       -0.0000000000
   39        0.0000000000
   40        0.0000000000
   41        0.0000000000
   42       -0.0000000000
   43       -0.0000000000
   44        0.0000000000
   45        0.0000000000
   46        0.0169087900
   47        0.0173548400
   48        0.0000000000
   49        0.0322330400
   50        0.0330833400
   51       -0.0000000000
   52        0.0293202200
   53        0.0300936800
   54        0.0000000000
   55        0.4820864200
   56        0.4948036900
   57       -0.0000000000
   58       -0.0000000000
   59       -0.0000000000
   60        0.0006816000
   61        0.0006995800
   62       -0.0000000000
   63       -0.0000000000
   64       -0.0000000000
   65       -0.0000000000
   66       -0.0296083200
   67       -0.0303893800
   68        0.0000000000
 Ene=          0.01638750
 Spin= Alpha
 Occup=        0.00000000
    1       -0.0000000000
    2        0.0000000000
    3       -0.0000000000
    4        0.0000000000
    5       -0.0000000000
    6       -0.0000000000
    7        0.0000000000
    8       -0.0000000000
    9        0.0000000000
   10       -0.0000000000
   11        0.0000000000
   12       -0.0173548400
   13        0.0169087900
   14        0.0000000000
   15       -0.0330833400
   16        0.0322330400
   17       -0.0000000000
   18       -0.0300936800
   19        0.0293202200
   20        0.0000000000
   21       -0.4948036900
   22        0.4820864200
   23        0.0000000000
   24        0.0000000000
   25        0.0000000000
   26        0.0006995800
   27       -0.0006816000
   28       -0.0000000000
   29        0.0000000000
   30        0.0000000000
   31        0.0000000000
   32       -0.0303893800
   33        0.0296083200
   34       -0.0000000000
   35        0.0000000000
   36       -0.0000000000
   37        0.0000000000
   38       -0.0000000000
   39        0.0000000000
   40       -0.0000000000
   41        0.0000000000
   42       -0.0000000000
   43       -0.0000000000
   44       -0.0000000000
   45        0.0000000000
   46        0.0173548400
   47       -0.0169087900
   48        0.0000000000
   49        0.0330833400
   50       -0.0322330400
   51       -0.0000000000
   52        0.0300936800
   53       -0.0293202200
   54        0.0000000000
   55        0.4948036900
   56       -0.4820864200
   57       -0.0000000000
   58       -0.0000000000
   59       -0.0000000000
   60        0.0006995800
   61       -0.0006816000
   62        0.0000000000
   63       -0.0000000000
   64       -0.0000000000
   65       -0.0000000000
   66       -0.0303893800
   67        0.0296083200
   68        0.0000000000
 Ene=          0.01915850
 Spin= Alpha
 Occup=        0.00000000
    1        0.1097791900
    2      -12.3496977000
    3        2.6123993600
    4       -1.7134349800
    5        0.6098451300
    6       -0.0618913700
    7        0.0563663400
    8       -0.0296841800
    9        0.0005978300
   10       -0.0003514900
   11        0.0449310300
   12       -0.0000000000
   13        0.0000000000
   14       -6.7770667300
   15        0.0000000000
   16       -0.0000000000
   17        1.6087279600
   18       -0.0000000000
   19        0.0000000000
   20       -0.6851113600
   21       -0.0000000000
   22       -0.0000000000
   23        0.0279193900
   24        0.0325135900
   25        0.0325135900
   26       -0.0000000000
   27        0.0000000000
   28       -0.0000000000
   29       -1.8620458100
   30       -0.0644300100
   31       -0.0644300100
   32        0.0000000000
   33       -0.0000000000
   34       -0.0000000000
   35       -0.1097791900
   36       12.3496977000
   37       -2.6123993600
   38        1.7134349800
   39       -0.6098451300
   40        0.0618913700
   41       -0.0563663400
   42        0.0296841800
   43       -0.0005978300
   44        0.0003514900
   45        0.0449310300
   46        0.0000000000
   47       -0.0000000000
   48       -6.7770667300
   49       -0.0000000000
   50        0.0000000000
   51        1.6087279600
   52        0.0000000000
   53       -0.0000000000
   54       -0.6851113600
   55       -0.0000000000
   56        0.0000000000
   57       -0.0279193900
   58       -0.0325135900
   59       -0.0325135900
   60       -0.0000000000
   61        0.0000000000
   62       -0.0000000000
   63        1.8620458100
   64        0.0644300100
   65        0.0644300100
   66        0.0000000000
   67       -0.0000000000
   68        0.0000000000
 Ene=          0.02019530
 Spin= Alpha
 Occup=        0.00000000
    1        0.0000000000
    2        0.0000000000
    3        0.0000000000
    4       -0.0000000000
    5        0.0000000000
    6       -0.0000000000
    7       -0.0000000000
    8        0.0000000000
    9       -0.0000000000
   10        0.0000000000
   11       -0.0000000000
   12       -0.0021106800
   13       -0.0734575700
   14        0.0000000000
   15        0.0058357300
   16        0.2031001700
   17        0.0000000000
   18       -0.0254317100
   19       -0.8850966200
   20       -0.0000000000
   21        0.0284368300
   22        0.9896834000
   23       -0.0000000000
   24        0.0000000000
   25        0.0000000000
   26        0.0021097100
   27        0.0734240800
   28       -0.0000000000
   29        0.0000000000
   30       -0.0000000000
   31       -0.0000000000
   32       -0.0036294800
   33       -0.1263165000
   34       -0.0000000000
   35        0.0000000000
   36       -0.0000000000
   37       -0.0000000000
   38        0.0000000000
   39       -0.0000000000
   40        0.0000000000
   41       -0.0000000000
   42       -0.0000000000
   43        0.0000000000
   44       -0.0000000000
   45        0.0000000000
   46       -0.0021106800
   47       -0.0734575700
   48        0.0000000000
   49        0.0058357300
   50        0.2031001700
   51        0.0000000000
   52       -0.0254317100
   53       -0.8850966200
   54       -0.0000000000
   55        0.0284368300
   56        0.9896834000
   57       -0.0000000000
   58       -0.0000000000
   59       -0.0000000000
   60       -0.0021097100
   61       -0.0734240800
   62        0.0000000000
   63       -0.0000000000
   64       -0.0000000000
   65       -0.0000000000
   66        0.0036294800
   67        0.1263165000
   68       -0.0000000000
 Ene=          0.02019530
 Spin= Alpha
 Occup=        0.00000000
    1        0.0000000000
    2       -0.0000000000
    3       -0.0000000000
    4        0.0000000000
    5       -0.0000000000
    6        0.0000000000
    7       -0.0000000000
    8        0.0000000000
    9        0.0000000000
   10       -0.0000000000
   11        0.0000000000
   12        0.0734575700
   13       -0.0021106800
   14       -0.0000000000
   15       -0.2031001700
   16        0.0058357300
   17       -0.0000000000
   18        0.8850966200
   19       -0.0254317100
   20        0.0000000000
   21       -0.9896834000
   22        0.0284368300
   23        0.0000000000
   24       -0.0000000000
   25       -0.0000000000
   26       -0.0734240800
   27        0.0021097100
   28        0.0000000000
   29       -0.0000000000
   30       -0.0000000000
   31       -0.0000000000
   32        0.1263165000
   33       -0.0036294800
   34        0.0000000000
   35       -0.0000000000
   36        0.0000000000
   37        0.0000000000
   38       -0.0000000000
   39        0.0000000000
   40       -0.0000000000
   41        0.0000000000
   42       -0.0000000000
   43        0.0000000000
   44       -0.0000000000
   45       -0.0000000000
   46        0.0734575700
   47       -0.0021106800
   48       -0.0000000000
   49       -0.2031001700
   50        0.0058357300
   51       -0.0000000000
   52        0.8850966200
   53       -0.0254317100
   54        0.0000000000
   55       -0.9896834000
   56        0.0284368300
   57        0.0000000000
   58        0.0000000000
   59        0.0000000000
   60        0.0734240800
   61       -0.0021097100
   62       -0.0000000000
   63        0.0000000000
   64        0.0000000000
   65        0.0000000000
   66       -0.1263165000
   67        0.0036294800
   68       -0.0000000000
 Ene=          0.02436100
 Spin= Alpha
 Occup=        0.00000000
    1        0.4974742100
    2        0.0644706000
    3       -0.1376291500
    4        0.9196731000
    5       -0.6273136200
    6       -0.0211687000
    7       -0.0667591500
    8        0.0444282800
    9        0.0015559600
   10        0.0001805800
   11       -0.5608211600
   12        0.0000000000
   13        0.0000000000
   14        0.1822568600
   15        0.0000000000
   16       -0.0000000000
   17       -0.2303194200
   18       -0.0000000000
   19        0.0000000000
   20       -0.2878467000
   21        0.0000000000
   22       -0.0000000000
   23       -0.2908034700
   24       -0.0304641100
   25       -0.0304641100
   26        0.0000000000
   27        0.0000000000
   28        0.0000000000
   29       -0.0335409800
   30       -0.0768633600
   31       -0.0768633600
   32        0.0000000000
   33       -0.0000000000
   34       -0.0000000000
   35        0.4974742100
   36        0.0644706000
   37       -0.1376291500
   38        0.9196731000
   39       -0.6273136200
   40       -0.0211687000
   41       -0.0667591500
   42        0.0444282800
   43        0.0015559600
   44        0.0001805800
   45        0.5608211600
   46       -0.0000000000
   47       -0.0000000000
   48       -0.1822568600
   49       -0.0000000000
   50        0.0000000000
   51        0.2303194200
   52        0.0000000000
   53       -0.0000000000
   54        0.2878467000
   55       -0.0000000000
   56        0.0000000000
   57       -0.2908034700
   58       -0.0304641100
   59       -0.0304641100
   60        0.0000000000
   61        0.0000000000
   62       -0.0000000000
   63       -0.0335409800
   64       -0.0768633600
   65       -0.0768633600
   66        0.0000000000
   67       -0.0000000000
   68        0.0000000000
 Ene=          0.02601880
 Spin= Alpha
 Occup=        0.00000000
    1       -0.0000000000
    2        0.0000000000
    3       -0.0000000000
    4        0.0000000000
    5       -0.0000000000
    6       -0.0000000000
    7       -0.0000000000
    8        0.0000000000
    9        0.0000000000
   10        0.0000000000
   11        0.0000000000
   12       -0.1968274400
   13       -2.2564860600
   14        0.0000000000
   15        0.0538355200
   16        0.6171858300
   17       -0.0000000000
   18       -0.1271243400
   19       -1.4573897700
   20       -0.0000000000
   21        0.0724293400
   22        0.8303506700
   23        0.0000000000
   24        0.0000000000
   25        0.0000000000
   26       -0.0489898400
   27       -0.5616335500
   28        0.0000000000
   29        0.0000000000
   30        0.0000000000
   31        0.0000000000
   32        0.0035952300
   33        0.0412167500
   34       -0.0000000000
   35        0.0000000000
   36       -0.0000000000
   37        0.0000000000
   38       -0.0000000000
   39        0.0000000000
   40       -0.0000000000
   41        0.0000000000
   42       -0.0000000000
   43        0.0000000000
   44       -0.0000000000
   45       -0.0000000000
   46        0.1968274400
   47        2.2564860600
   48        0.0000000000
   49       -0.0538355200
   50       -0.6171858300
   51       -0.0000000000
   52        0.1271243400
   53        1.4573897700
   54       -0.0000000000
   55       -0.0724293400
   56       -0.8303506700
   57        0.0000000000
   58       -0.0000000000
   59       -0.0000000000
   60       -0.0489898400
   61       -0.5616335500
   62       -0.0000000000
   63       -0.0000000000
   64       -0.0000000000
   65       -0.0000000000
   66        0.0035952300
   67        0.0412167500
   68        0.0000000000
 Ene=          0.02601880
 Spin= Alpha
 Occup=        0.00000000
    1        0.0000000000
    2       -0.0000000000
    3        0.0000000000
    4       -0.0000000000
    5        0.0000000000
    6       -0.0000000000
    7        0.0000000000
    8       -0.0000000000
    9        0.0000000000
   10       -0.0000000000
   11       -0.0000000000
   12       -2.2564860600
   13        0.1968274400
   14       -0.0000000000
   15        0.6171858300
   16       -0.0538355200
   17        0.0000000000
   18       -1.4573897700
   19        0.1271243400
   20        0.0000000000
   21        0.8303506700
   22       -0.0724293400
   23       -0.0000000000
   24       -0.0000000000
   25       -0.0000000000
   26       -0.5616335500
   27        0.0489898400
   28       -0.0000000000
   29       -0.0000000000
   30       -0.0000000000
   31       -0.0000000000
   32        0.0412167500
   33       -0.0035952300
   34        0.0000000000
   35       -0.0000000000
   36        0.0000000000
   37       -0.0000000000
   38        0.0000000000
   39       -0.0000000000
   40       -0.0000000000
   41       -0.0000000000
   42        0.0000000000
   43       -0.0000000000
   44        0.0000000000
   45        0.0000000000
   46        2.2564860600
   47       -0.1968274400
   48       -0.0000000000
   49       -0.6171858300
   50        0.0538355200
   51        0.0000000000
   52        1.4573897700
   53       -0.1271243400
   54        0.0000000000
   55       -0.8303506700
   56        0.0724293400
   57       -0.0000000000
   58        0.0000000000
   59        0.0000000000
   60       -0.5616335500
   61        0.0489898400
   62        0.0000000000
   63        0.0000000000
   64        0.0000000000
   65        0.0000000000
   66        0.0412167500
   67       -0.0035952300
   68       -0.0000000000
 Ene=          0.02611630
 Spin= Alpha
 Occup=        0.00000000
    1       -0.0262240500
    2        2.9933069000
    3       -1.1547227800
    4        1.5777979500
    5       -0.8002997800
    6       -0.0053370900
    7       -0.0763262000
    8        0.0489269300
    9        0.0013528100
   10        0.0002508600
   11       -0.0161883900
   12        0.0000000000
   13        0.0000000000
   14        1.6881541600
   15       -0.0000000000
   16       -0.0000000000