 Molden2AIM, Version 3.1.0 (02/25/2015)           Time: Thu Oct 17 19:52:32 2024
GAUSSIAN             68 MOL ORBITALS     68 PRIMITIVES        2 NUCLEI
  Be   1    (CENTRE  1)   0.00000000  0.00000000  0.00000000  CHARGE =  4.0
  Be   2    (CENTRE  2)   8.40000000  0.00000000  0.00000000  CHARGE =  4.0
CENTRE ASSIGNMENTS    1  1  1  1  1  1  1  1  1  1  1  1  1  1  1  1  1  1  1  1
CENTRE ASSIGNMENTS    1  1  1  1  1  1  1  1  1  1  1  1  1  1  2  2  2  2  2  2
CENTRE ASSIGNMENTS    2  2  2  2  2  2  2  2  2  2  2  2  2  2  2  2  2  2  2  2
CENTRE ASSIGNMENTS    2  2  2  2  2  2  2  2
TYPE ASSIGNMENTS      1  1  1  1  1  1  1  1  1  1  2  3  4  2  3  4  2  3  4  2
TYPE ASSIGNMENTS      3  4  5  6  7  8  9 10  5  6  7  8  9 10  1  1  1  1  1  1
TYPE ASSIGNMENTS      1  1  1  1  2  3  4  2  3  4  2  3  4  2  3  4  5  6  7  8
TYPE ASSIGNMENTS      9 10  5  6  7  8  9 10
EXPONENTS  0.1000000D-03 0.3000000D-03 0.9000000D-03 0.2700000D-02 0.8100000D-02
EXPONENTS  0.2430000D-01 0.7290000D-01 0.2187000D+00 0.6561000D+00 0.1968300D+01
EXPONENTS  0.1000000D-03 0.1000000D-03 0.1000000D-03 0.3000000D-03 0.3000000D-03
EXPONENTS  0.3000000D-03 0.9000000D-03 0.9000000D-03 0.9000000D-03 0.2700000D-02
EXPONENTS  0.2700000D-02 0.2700000D-02 0.1000000D-03 0.1000000D-03 0.1000000D-03
EXPONENTS  0.1000000D-03 0.1000000D-03 0.1000000D-03 0.3000000D-03 0.3000000D-03
EXPONENTS  0.3000000D-03 0.3000000D-03 0.3000000D-03 0.3000000D-03 0.1000000D-03
EXPONENTS  0.3000000D-03 0.9000000D-03 0.2700000D-02 0.8100000D-02 0.2430000D-01
EXPONENTS  0.7290000D-01 0.2187000D+00 0.6561000D+00 0.1968300D+01 0.1000000D-03
EXPONENTS  0.1000000D-03 0.1000000D-03 0.3000000D-03 0.3000000D-03 0.3000000D-03
EXPONENTS  0.9000000D-03 0.9000000D-03 0.9000000D-03 0.2700000D-02 0.2700000D-02
EXPONENTS  0.2700000D-02 0.1000000D-03 0.1000000D-03 0.1000000D-03 0.1000000D-03
EXPONENTS  0.1000000D-03 0.1000000D-03 0.3000000D-03 0.3000000D-03 0.3000000D-03
EXPONENTS  0.3000000D-03 0.3000000D-03 0.3000000D-03
MO    1     MO 0.0        OCC NO =    1.0000000  ORB. ENERGY =   -0.012784
  0.35011656D-06 -0.61997502D-05  0.13615131D-04  0.59431304D-03  0.35201074D-02
  0.12732589D-01  0.14975915D-01 -0.28787251D-01 -0.49668856D-02  0.30380841D-03
  0.21495197D-09 -0.00000000D+00  0.00000000D+00 -0.27549397D-07 -0.00000000D+00
  0.00000000D+00 -0.73672469D-05  0.00000000D+00 -0.00000000D+00  0.32451788D-04
 -0.00000000D+00 -0.00000000D+00  0.82589113D-10 -0.65558750D-10 -0.65558750D-10
  0.00000000D+00  0.00000000D+00  0.00000000D+00 -0.15498843D-08  0.13567594D-08
  0.13567594D-08 -0.00000000D+00 -0.00000000D+00 -0.00000000D+00  0.35011656D-06
 -0.61997502D-05  0.13615131D-04  0.59431304D-03  0.35201074D-02  0.12732589D-01
  0.14975915D-01 -0.28787251D-01 -0.49668856D-02  0.30380841D-03 -0.21495197D-09
  0.00000000D+00 -0.00000000D+00  0.27549397D-07  0.00000000D+00  0.00000000D+00
  0.73672469D-05 -0.00000000D+00  0.00000000D+00 -0.32451788D-04  0.00000000D+00
  0.00000000D+00  0.82589113D-10 -0.65558750D-10 -0.65558750D-10 -0.00000000D+00
 -0.00000000D+00 -0.00000000D+00 -0.15498843D-08  0.13567594D-08  0.13567594D-08
  0.00000000D+00  0.00000000D+00  0.00000000D+00
MO    2     MO 0.0        OCC NO =    0.0000000  ORB. ENERGY =    0.002331
  0.10872297D-03  0.52739747D-03 -0.42661949D-02  0.51936716D-02 -0.25552914D-02
  0.55621827D-02  0.10692010D-03 -0.31102003D-02 -0.16543591D-02  0.39012354D-03
  0.19926475D-06 -0.00000000D+00 -0.00000000D+00  0.33667876D-05 -0.00000000D+00
 -0.00000000D+00 -0.19601196D-04  0.00000000D+00 -0.00000000D+00 -0.72068325D-05
 -0.00000000D+00 -0.00000000D+00 -0.32920661D-08 -0.34980188D-08 -0.34980188D-08
 -0.00000000D+00  0.00000000D+00  0.00000000D+00 -0.10592383D-06 -0.11274996D-06
 -0.11274996D-06  0.00000000D+00 -0.00000000D+00 -0.00000000D+00  0.10872297D-03
  0.52739747D-03 -0.42661949D-02  0.51936716D-02 -0.25552914D-02  0.55621827D-02
  0.10692010D-03 -0.31102003D-02 -0.16543591D-02  0.39012354D-03 -0.19926475D-06
  0.00000000D+00  0.00000000D+00 -0.33667876D-05  0.00000000D+00  0.00000000D+00
  0.19601196D-04 -0.00000000D+00  0.00000000D+00  0.72068325D-05  0.00000000D+00
  0.00000000D+00 -0.32920661D-08 -0.34980188D-08 -0.34980188D-08  0.00000000D+00
 -0.00000000D+00 -0.00000000D+00 -0.10592383D-06 -0.11274996D-06 -0.11274996D-06
 -0.00000000D+00  0.00000000D+00  0.00000000D+00
MO    3     MO 0.0        OCC NO =    0.0000000  ORB. ENERGY =    0.002674
  0.42133223D-05  0.34041903D-05 -0.12339637D+00  0.24790182D-01 -0.67327595D-02
 -0.22125941D-02 -0.46479603D-02  0.81037608D-02  0.95080938D-03  0.76117911D-04
 -0.17484778D-05 -0.00000000D+00 -0.00000000D+00 -0.43173814D-05 -0.00000000D+00
 -0.00000000D+00 -0.81445596D-03  0.00000000D+00  0.00000000D+00  0.56122311D-03
 -0.00000000D+00 -0.00000000D+00 -0.81623047D-07 -0.96652592D-07 -0.96652592D-07
 -0.00000000D+00 -0.00000000D+00 -0.00000000D+00 -0.11812123D-05 -0.10174956D-05
 -0.10174956D-05 -0.00000000D+00 -0.00000000D+00 -0.00000000D+00 -0.42133223D-05
 -0.34041903D-05  0.12339637D+00 -0.24790182D-01  0.67327595D-02  0.22125941D-02
  0.46479603D-02 -0.81037608D-02 -0.95080938D-03 -0.76117911D-04 -0.17484776D-05
  0.00000000D+00  0.00000000D+00 -0.43173814D-05  0.00000000D+00  0.00000000D+00
 -0.81445596D-03 -0.00000000D+00 -0.00000000D+00  0.56122311D-03  0.00000000D+00
  0.00000000D+00  0.81623047D-07  0.96652592D-07  0.96652592D-07 -0.00000000D+00
 -0.00000000D+00  0.00000000D+00  0.11812123D-05  0.10174956D-05  0.10174956D-05
 -0.00000000D+00 -0.00000000D+00  0.00000000D+00
MO    4     MO 0.0        OCC NO =    0.0000000  ORB. ENERGY =    0.003485
  0.00000000D+00  0.00000000D+00  0.00000000D+00  0.00000000D+00  0.00000000D+00
 -0.00000000D+00 -0.00000000D+00  0.00000000D+00  0.00000000D+00  0.00000000D+00
 -0.00000000D+00 -0.29860421D-06 -0.24391247D-06 -0.00000000D+00  0.51932656D-05
  0.42420770D-05  0.00000000D+00 -0.97546091D-04 -0.79679735D-04  0.00000000D+00
 -0.12124570D-04 -0.99038513D-05 -0.00000000D+00 -0.00000000D+00 -0.00000000D+00
 -0.43386978D-07 -0.35440300D-07 -0.00000000D+00 -0.00000000D+00 -0.00000000D+00
 -0.00000000D+00  0.17032198D-06  0.13912614D-06  0.00000000D+00  0.00000000D+00
 -0.00000000D+00 -0.00000000D+00 -0.00000000D+00 -0.00000000D+00  0.00000000D+00
  0.00000000D+00 -0.00000000D+00 -0.00000000D+00  0.00000000D+00 -0.00000000D+00
 -0.29860421D-06 -0.24391247D-06 -0.00000000D+00  0.51932656D-05  0.42420770D-05
  0.00000000D+00 -0.97546091D-04 -0.79679735D-04  0.00000000D+00 -0.12124570D-04
 -0.99038513D-05  0.00000000D+00  0.00000000D+00  0.00000000D+00  0.43386978D-07
  0.35440300D-07  0.00000000D+00  0.00000000D+00  0.00000000D+00  0.00000000D+00
 -0.17032198D-06 -0.13912614D-06 -0.00000000D+00
MO    5     MO 0.0        OCC NO =    0.0000000  ORB. ENERGY =    0.003485
  0.00000000D+00 -0.00000000D+00 -0.00000000D+00  0.00000000D+00 -0.00000000D+00
  0.00000000D+00  0.00000000D+00 -0.00000000D+00 -0.00000000D+00  0.00000000D+00
  0.00000000D+00 -0.24391247D-06  0.29860421D-06  0.00000000D+00  0.42420770D-05
 -0.51932656D-05 -0.00000000D+00 -0.79679735D-04  0.97546091D-04  0.00000000D+00
 -0.99038513D-05  0.12124570D-04  0.00000000D+00  0.00000000D+00  0.00000000D+00
 -0.35440300D-07  0.43386978D-07 -0.00000000D+00  0.00000000D+00  0.00000000D+00
  0.00000000D+00  0.13912614D-06 -0.17032198D-06  0.00000000D+00 -0.00000000D+00
 -0.00000000D+00  0.00000000D+00 -0.00000000D+00  0.00000000D+00 -0.00000000D+00
 -0.00000000D+00  0.00000000D+00  0.00000000D+00  0.00000000D+00  0.00000000D+00
 -0.24391247D-06  0.29860421D-06  0.00000000D+00  0.42420770D-05 -0.51932656D-05
 -0.00000000D+00 -0.79679735D-04  0.97546091D-04  0.00000000D+00 -0.99038513D-05
  0.12124570D-04 -0.00000000D+00 -0.00000000D+00 -0.00000000D+00  0.35440300D-07
 -0.43386978D-07  0.00000000D+00 -0.00000000D+00 -0.00000000D+00 -0.00000000D+00
 -0.13912614D-06  0.17032198D-06 -0.00000000D+00
MO    6     MO 0.0        OCC NO =    0.0000000  ORB. ENERGY =    0.006283
 -0.49478865D-05 -0.25392929D-05  0.17085007D+00 -0.19599735D-01 -0.43541075D-02
 -0.85659125D-02 -0.58770620D-02  0.13326450D-01  0.27319001D-02 -0.24873633D-03
  0.20391967D-05  0.00000000D+00  0.00000000D+00  0.54317807D-05  0.00000000D+00
  0.00000000D+00  0.11338460D-02 -0.00000000D+00 -0.00000000D+00  0.10307815D-03
 -0.00000000D+00 -0.00000000D+00  0.94242487D-07  0.11326484D-06  0.11326484D-06
  0.00000000D+00  0.00000000D+00  0.00000000D+00  0.14016056D-05  0.11934748D-05
  0.11934748D-05  0.00000000D+00  0.00000000D+00  0.00000000D+00  0.49478865D-05
  0.25392929D-05 -0.17085007D+00  0.19599735D-01  0.43541075D-02  0.85659125D-02
  0.58770620D-02 -0.13326450D-01 -0.27319001D-02  0.24873633D-03  0.20391967D-05
 -0.00000000D+00 -0.00000000D+00  0.54317813D-05 -0.00000000D+00 -0.00000000D+00
  0.11338460D-02  0.00000000D+00  0.00000000D+00  0.10307815D-03  0.00000000D+00
  0.00000000D+00 -0.94242487D-07 -0.11326484D-06 -0.11326484D-06  0.00000000D+00
  0.00000000D+00 -0.00000000D+00 -0.14016056D-05 -0.11934748D-05 -0.11934748D-05
  0.00000000D+00  0.00000000D+00 -0.00000000D+00
MO    7     MO 0.0        OCC NO =    0.0000000  ORB. ENERGY =    0.006707
 -0.00000000D+00 -0.00000000D+00 -0.00000000D+00 -0.00000000D+00 -0.00000000D+00
 -0.00000000D+00 -0.00000000D+00  0.00000000D+00  0.00000000D+00 -0.00000000D+00
  0.00000000D+00 -0.32542132D-09  0.13575756D-07  0.00000000D+00  0.34020286D-08
 -0.14195323D-06 -0.00000000D+00 -0.18639505D-04  0.77776304D-03 -0.00000000D+00
 -0.15108911D-04  0.63044333D-03  0.00000000D+00  0.00000000D+00  0.00000000D+00
  0.23841138D-09 -0.99481283D-08  0.00000000D+00  0.00000000D+00  0.00000000D+00
  0.00000000D+00 -0.48225200D-08  0.20122708D-06 -0.00000000D+00 -0.00000000D+00
  0.00000000D+00  0.00000000D+00  0.00000000D+00  0.00000000D+00  0.00000000D+00
  0.00000000D+00 -0.00000000D+00 -0.00000000D+00  0.00000000D+00  0.00000000D+00
  0.32542132D-09 -0.13575756D-07  0.00000000D+00 -0.34020286D-08  0.14195323D-06
 -0.00000000D+00  0.18639505D-04 -0.77776304D-03 -0.00000000D+00  0.15108911D-04
 -0.63044333D-03 -0.00000000D+00 -0.00000000D+00 -0.00000000D+00  0.23841138D-09
 -0.99481283D-08 -0.00000000D+00 -0.00000000D+00 -0.00000000D+00 -0.00000000D+00
 -0.48225200D-08  0.20122708D-06  0.00000000D+00
MO    8     MO 0.0        OCC NO =    0.0000000  ORB. ENERGY =    0.006707
  0.00000000D+00  0.00000000D+00 -0.00000000D+00 -0.00000000D+00 -0.00000000D+00
 -0.00000000D+00 -0.00000000D+00  0.00000000D+00  0.00000000D+00 -0.00000000D+00
  0.00000000D+00  0.13575756D-07  0.32542132D-09  0.00000000D+00 -0.14195323D-06
 -0.34020286D-08 -0.00000000D+00  0.77776304D-03  0.18639505D-04 -0.00000000D+00
  0.63044333D-03  0.15108911D-04  0.00000000D+00  0.00000000D+00  0.00000000D+00
 -0.99481283D-08 -0.23841138D-09 -0.00000000D+00  0.00000000D+00  0.00000000D+00
  0.00000000D+00  0.20122708D-06  0.48225200D-08  0.00000000D+00  0.00000000D+00
  0.00000000D+00  0.00000000D+00  0.00000000D+00  0.00000000D+00  0.00000000D+00
  0.00000000D+00 -0.00000000D+00 -0.00000000D+00 -0.00000000D+00  0.00000000D+00
 -0.13575756D-07 -0.32542132D-09  0.00000000D+00  0.14195323D-06  0.34020286D-08
 -0.00000000D+00 -0.77776304D-03 -0.18639505D-04 -0.00000000D+00 -0.63044333D-03
 -0.15108911D-04 -0.00000000D+00 -0.00000000D+00 -0.00000000D+00 -0.99481283D-08
 -0.23841138D-09  0.00000000D+00 -0.00000000D+00 -0.00000000D+00 -0.00000000D+00
  0.20122708D-06  0.48225200D-08 -0.00000000D+00
MO    9     MO 0.0        OCC NO =    0.0000000  ORB. ENERGY =    0.006737
  0.18074133D-03  0.82840687D-03 -0.16507094D-02 -0.44956086D-02  0.34900346D-03
  0.90321728D-05  0.43458971D-03 -0.63290673D-03  0.20564275D-04 -0.38147781D-04
  0.35853932D-06 -0.00000000D+00  0.00000000D+00  0.50533497D-05  0.00000000D+00
 -0.00000000D+00  0.64497345D-03 -0.00000000D+00  0.00000000D+00  0.57506618D-03
 -0.00000000D+00  0.00000000D+00 -0.11112667D-07 -0.32492771D-08 -0.32492771D-08
  0.00000000D+00 -0.00000000D+00 -0.00000000D+00 -0.55008287D-07 -0.23298932D-06
 -0.23298932D-06 -0.00000000D+00  0.00000000D+00  0.00000000D+00  0.18074133D-03
  0.82840687D-03 -0.16507095D-02 -0.44956086D-02  0.34900346D-03  0.90321728D-05
  0.43458971D-03 -0.63290673D-03  0.20564275D-04 -0.38147781D-04 -0.35853932D-06
  0.00000000D+00 -0.00000000D+00 -0.50533497D-05 -0.00000000D+00  0.00000000D+00
 -0.64497345D-03  0.00000000D+00 -0.00000000D+00 -0.57506618D-03  0.00000000D+00
 -0.00000000D+00 -0.11112667D-07 -0.32492771D-08 -0.32492771D-08  0.00000000D+00
 -0.00000000D+00  0.00000000D+00 -0.55008287D-07 -0.23298932D-06 -0.23298932D-06
 -0.00000000D+00  0.00000000D+00 -0.00000000D+00
MO   10     MO 0.0        OCC NO =    0.0000000  ORB. ENERGY =    0.008959
 -0.00000000D+00 -0.00000000D+00 -0.00000000D+00 -0.00000000D+00  0.00000000D+00
 -0.00000000D+00 -0.00000000D+00  0.00000000D+00  0.00000000D+00 -0.00000000D+00
  0.00000000D+00  0.12291276D-06  0.34647792D-06  0.00000000D+00 -0.21675560D-05
 -0.61101064D-05 -0.00000000D+00  0.47422160D-04  0.13367797D-03 -0.00000000D+00
 -0.22186292D-03 -0.62540770D-03  0.00000000D+00  0.00000000D+00  0.00000000D+00
  0.16521140D-07  0.46571320D-07  0.00000000D+00  0.00000000D+00  0.00000000D+00
  0.00000000D+00 -0.61943611D-07 -0.17461240D-06  0.00000000D+00  0.00000000D+00
  0.00000000D+00  0.00000000D+00  0.00000000D+00 -0.00000000D+00  0.00000000D+00
  0.00000000D+00 -0.00000000D+00 -0.00000000D+00  0.00000000D+00  0.00000000D+00
  0.12291276D-06  0.34647792D-06  0.00000000D+00 -0.21675560D-05 -0.61101064D-05
 -0.00000000D+00  0.47422160D-04  0.13367797D-03 -0.00000000D+00 -0.22186292D-03
 -0.62540770D-03 -0.00000000D+00 -0.00000000D+00 -0.00000000D+00 -0.16521140D-07
 -0.46571320D-07 -0.00000000D+00 -0.00000000D+00 -0.00000000D+00 -0.00000000D+00
  0.61943611D-07  0.17461240D-06 -0.00000000D+00
MO   11     MO 0.0        OCC NO =    0.0000000  ORB. ENERGY =    0.008959
 -0.00000000D+00  0.00000000D+00  0.00000000D+00  0.00000000D+00 -0.00000000D+00
  0.00000000D+00  0.00000000D+00 -0.00000000D+00 -0.00000000D+00  0.00000000D+00
 -0.00000000D+00  0.34647792D-06 -0.12291276D-06 -0.00000000D+00 -0.61101064D-05
  0.21675560D-05  0.00000000D+00  0.13367797D-03 -0.47422160D-04  0.00000000D+00
 -0.62540770D-03  0.22186292D-03 -0.00000000D+00 -0.00000000D+00  0.00000000D+00
  0.46571320D-07 -0.16521140D-07  0.00000000D+00 -0.00000000D+00 -0.00000000D+00
 -0.00000000D+00 -0.17461240D-06  0.61943611D-07 -0.00000000D+00  0.00000000D+00
 -0.00000000D+00 -0.00000000D+00 -0.00000000D+00  0.00000000D+00 -0.00000000D+00
 -0.00000000D+00  0.00000000D+00  0.00000000D+00  0.00000000D+00 -0.00000000D+00
  0.34647792D-06 -0.12291276D-06 -0.00000000D+00 -0.61101064D-05  0.21675560D-05
  0.00000000D+00  0.13367797D-03 -0.47422160D-04  0.00000000D+00 -0.62540770D-03
  0.22186292D-03  0.00000000D+00  0.00000000D+00 -0.00000000D+00 -0.46571320D-07
  0.16521140D-07 -0.00000000D+00  0.00000000D+00  0.00000000D+00  0.00000000D+00
  0.17461240D-06 -0.61943611D-07  0.00000000D+00
MO   12     MO 0.0        OCC NO =    0.0000000  ORB. ENERGY =    0.009955
  0.83531312D-04 -0.21938482D-03  0.32482939D-02 -0.12977176D-01  0.15554901D-01
 -0.12778904D-02  0.96596615D-02 -0.13327070D-01 -0.27089458D-03 -0.54049994D-03
  0.15489969D-06  0.00000000D+00  0.00000000D+00 -0.84606622D-06 -0.00000000D+00
  0.00000000D+00 -0.13945100D-03  0.00000000D+00  0.00000000D+00  0.21961054D-03
  0.00000000D+00 -0.00000000D+00 -0.15800316D-08 -0.39046259D-08 -0.39046259D-08
  0.00000000D+00 -0.00000000D+00 -0.00000000D+00 -0.53126822D-07 -0.88489775D-08
 -0.88489775D-08 -0.00000000D+00  0.00000000D+00 -0.00000000D+00  0.83531312D-04
 -0.21938482D-03  0.32482939D-02 -0.12977176D-01  0.15554901D-01 -0.12778904D-02
  0.96596615D-02 -0.13327070D-01 -0.27089458D-03 -0.54049994D-03 -0.15489969D-06
 -0.00000000D+00 -0.00000000D+00  0.84606622D-06  0.00000000D+00 -0.00000000D+00
  0.13945100D-03 -0.00000000D+00  0.00000000D+00 -0.21961054D-03 -0.00000000D+00
 -0.00000000D+00 -0.15800316D-08 -0.39046259D-08 -0.39046259D-08 -0.00000000D+00
  0.00000000D+00  0.00000000D+00 -0.53126822D-07 -0.88489775D-08 -0.88489775D-08
  0.00000000D+00 -0.00000000D+00  0.00000000D+00
MO   13     MO 0.0        OCC NO =    0.0000000  ORB. ENERGY =    0.010502
  0.22830094D-05  0.13980924D-03  0.10813877D+01  0.41306635D+00 -0.62471681D-02
  0.36726106D-02 -0.35844947D-03 -0.13222415D-02 -0.84204940D-03  0.20720132D-03
 -0.15179737D-05  0.28508219D-12  0.28508219D-12 -0.18654201D-04  0.00000000D+00
  0.16883517D-11  0.82606242D-02  0.00000000D+00 -0.00000000D+00  0.10229745D-01
 -0.00000000D+00  0.00000000D+00 -0.14305753D-06 -0.21998306D-07 -0.21998306D-07
  0.00000000D+00  0.00000000D+00 -0.00000000D+00 -0.11250194D-05 -0.23915246D-05
 -0.23915246D-05  0.00000000D+00  0.00000000D+00  0.00000000D+00 -0.22830166D-05
 -0.13980922D-03 -0.10813877D+01 -0.41306635D+00  0.62471681D-02 -0.36726106D-02
  0.35844947D-03  0.13222415D-02  0.84204940D-03 -0.20720132D-03 -0.15179744D-05
 -0.28508219D-12 -0.28508219D-12 -0.18654199D-04 -0.00000000D+00 -0.16883517D-11
  0.82606242D-02 -0.00000000D+00  0.00000000D+00  0.10229745D-01  0.00000000D+00
 -0.00000000D+00  0.14305753D-06  0.21998306D-07  0.21998306D-07  0.00000000D+00
  0.00000000D+00  0.00000000D+00  0.11250194D-05  0.23915246D-05  0.23915246D-05
  0.00000000D+00  0.00000000D+00 -0.00000000D+00
MO   14     MO 0.0        OCC NO =    0.0000000  ORB. ENERGY =    0.014576
 -0.00000000D+00 -0.00000000D+00 -0.00000000D+00  0.00000000D+00  0.00000000D+00
  0.00000000D+00  0.00000000D+00 -0.00000000D+00 -0.00000000D+00  0.00000000D+00
  0.00000000D+00  0.76142602D-08  0.79657665D-08  0.00000000D+00 -0.23853032D-07
 -0.24954400D-07 -0.00000000D+00  0.71556232D-03  0.74860120D-03  0.00000000D+00
 -0.17977183D-02 -0.18807224D-02  0.00000000D+00  0.00000000D+00  0.00000000D+00
 -0.73704265D-08 -0.77107320D-08 -0.00000000D+00  0.00000000D+00  0.00000000D+00
  0.00000000D+00  0.15236254D-06  0.15939742D-06  0.00000000D+00  0.00000000D+00
  0.00000000D+00  0.00000000D+00 -0.00000000D+00 -0.00000000D+00 -0.00000000D+00
 -0.00000000D+00  0.00000000D+00  0.00000000D+00 -0.00000000D+00  0.00000000D+00
 -0.76142602D-08 -0.79657665D-08  0.00000000D+00  0.23853032D-07  0.24954400D-07
 -0.00000000D+00 -0.71556232D-03 -0.74860120D-03  0.00000000D+00  0.17977183D-02
  0.18807224D-02 -0.00000000D+00 -0.00000000D+00 -0.00000000D+00 -0.73704265D-08
 -0.77107320D-08  0.00000000D+00 -0.00000000D+00 -0.00000000D+00 -0.00000000D+00
  0.15236254D-06  0.15939742D-06 -0.00000000D+00
MO   15     MO 0.0        OCC NO =    0.0000000  ORB. ENERGY =    0.014576
 -0.00000000D+00 -0.00000000D+00 -0.00000000D+00  0.00000000D+00  0.00000000D+00
  0.00000000D+00  0.00000000D+00 -0.00000000D+00 -0.00000000D+00  0.00000000D+00
  0.00000000D+00 -0.79657665D-08  0.76142602D-08  0.00000000D+00  0.24954400D-07
 -0.23853032D-07 -0.00000000D+00 -0.74860120D-03  0.71556232D-03  0.00000000D+00
  0.18807224D-02 -0.17977183D-02  0.00000000D+00  0.00000000D+00  0.00000000D+00
  0.77107320D-08 -0.73704265D-08  0.00000000D+00  0.00000000D+00  0.00000000D+00
  0.00000000D+00 -0.15939742D-06  0.15236254D-06 -0.00000000D+00 -0.00000000D+00
  0.00000000D+00  0.00000000D+00 -0.00000000D+00 -0.00000000D+00 -0.00000000D+00
 -0.00000000D+00  0.00000000D+00  0.00000000D+00 -0.00000000D+00  0.00000000D+00
  0.79657665D-08 -0.76142602D-08  0.00000000D+00 -0.24954400D-07  0.23853032D-07
 -0.00000000D+00  0.74860120D-03 -0.71556232D-03  0.00000000D+00 -0.18807224D-02
  0.17977183D-02 -0.00000000D+00 -0.00000000D+00 -0.00000000D+00  0.77107320D-08
 -0.73704265D-08 -0.00000000D+00 -0.00000000D+00 -0.00000000D+00 -0.00000000D+00
 -0.15939742D-06  0.15236254D-06  0.00000000D+00
MO   16     MO 0.0        OCC NO =    0.0000000  ORB. ENERGY =    0.014873
  0.37179398D-03  0.14827274D-02 -0.49675161D-02 -0.59110880D-04  0.12399540D-01
 -0.48437023D-02  0.54646060D-02 -0.54388943D-02  0.85262250D-03 -0.52661941D-03
  0.70823966D-06 -0.00000000D+00 -0.00000000D+00  0.95987773D-05  0.00000000D+00
 -0.00000000D+00  0.84828768D-03 -0.00000000D+00  0.00000000D+00 -0.20875160D-02
  0.00000000D+00 -0.00000000D+00 -0.17459903D-07 -0.96599866D-08 -0.96599866D-08
  0.00000000D+00  0.00000000D+00  0.00000000D+00 -0.20421751D-06 -0.40297379D-06
 -0.40297379D-06 -0.00000000D+00 -0.00000000D+00  0.00000000D+00  0.37179398D-03
  0.14827274D-02 -0.49675162D-02 -0.59110880D-04  0.12399540D-01 -0.48437023D-02
  0.54646060D-02 -0.54388943D-02  0.85262250D-03 -0.52661941D-03 -0.70823966D-06
  0.00000000D+00  0.00000000D+00 -0.95987773D-05 -0.00000000D+00  0.00000000D+00
 -0.84828767D-03  0.00000000D+00 -0.00000000D+00  0.20875160D-02 -0.00000000D+00
  0.00000000D+00 -0.17459903D-07 -0.96599866D-08 -0.96599866D-08 -0.00000000D+00
 -0.00000000D+00 -0.00000000D+00 -0.20421751D-06 -0.40297379D-06 -0.40297379D-06
 -0.00000000D+00  0.00000000D+00 -0.00000000D+00
MO   17     MO 0.0        OCC NO =    0.0000000  ORB. ENERGY =    0.016137
  0.42794614D-05  0.11322129D-03  0.68797388D+00 -0.14419041D+00 -0.26535568D-01
 -0.16330108D-02 -0.11522864D-01  0.17657391D-01  0.11771255D-02  0.47078934D-03
 -0.21910592D-05  0.14254109D-12  0.14254109D-12 -0.20845007D-04  0.00000000D+00
  0.11255678D-11  0.54772354D-02 -0.00000000D+00  0.00000000D+00 -0.41602735D-02
  0.00000000D+00 -0.00000000D+00 -0.15217729D-06 -0.72826061D-07 -0.72826061D-07
  0.00000000D+00  0.00000000D+00  0.00000000D+00 -0.17709739D-05 -0.25701385D-05
 -0.25701385D-05  0.00000000D+00  0.00000000D+00  0.00000000D+00 -0.42794685D-05
 -0.11322129D-03 -0.68797388D+00  0.14419041D+00  0.26535568D-01  0.16330108D-02
  0.11522864D-01 -0.17657391D-01 -0.11771255D-02 -0.47078934D-03 -0.21910596D-05
 -0.14254109D-12 -0.14254109D-12 -0.20845006D-04 -0.00000000D+00 -0.11255678D-11
  0.54772354D-02  0.00000000D+00 -0.00000000D+00 -0.41602735D-02 -0.00000000D+00
  0.00000000D+00  0.15217729D-06  0.72826061D-07  0.72826061D-07  0.00000000D+00
  0.00000000D+00 -0.00000000D+00  0.17709739D-05  0.25701385D-05  0.25701385D-05
  0.00000000D+00  0.00000000D+00 -0.00000000D+00
MO   18     MO 0.0        OCC NO =    0.0000000  ORB. ENERGY =    0.022061
  0.11061795D-04  0.23314923D-03  0.15850640D+01 -0.65900001D+00  0.40422620D-01
 -0.46122373D-02  0.11078393D-01 -0.13954828D-01  0.21339462D-03 -0.74067808D-03
 -0.55880064D-05  0.28508219D-12  0.42762328D-12 -0.35080810D-04  0.00000000D+00
  0.22511356D-11  0.12347328D-01 -0.00000000D+00 -0.00000000D+00 -0.15013397D-01
  0.00000000D+00  0.00000000D+00 -0.36862260D-06 -0.23345885D-06 -0.23345885D-06
  0.00000000D+00  0.00000000D+00  0.00000000D+00 -0.38872082D-05 -0.52809484D-05
 -0.52809484D-05  0.00000000D+00  0.00000000D+00  0.00000000D+00 -0.11061802D-04
 -0.23314921D-03 -0.15850640D+01  0.65900001D+00 -0.40422620D-01  0.46122373D-02
 -0.11078393D-01  0.13954828D-01 -0.21339462D-03  0.74067808D-03 -0.55880074D-05
 -0.28508219D-12 -0.42762328D-12 -0.35080807D-04 -0.00000000D+00 -0.22511356D-11
  0.12347328D-01  0.00000000D+00  0.00000000D+00 -0.15013397D-01 -0.00000000D+00
 -0.00000000D+00  0.36862260D-06  0.23345885D-06  0.23345885D-06  0.00000000D+00
  0.00000000D+00 -0.00000000D+00  0.38872082D-05  0.52809484D-05  0.52809484D-05
  0.00000000D+00  0.00000000D+00 -0.00000000D+00
MO   19     MO 0.0        OCC NO =    0.0000000  ORB. ENERGY =    0.025818
 -0.21349049D-02 -0.48942129D-02  0.14816563D-01 -0.14093077D-01  0.42867647D-02
  0.87907899D-02  0.10950184D-03 -0.45913255D-02 -0.23449405D-02  0.52616935D-03
 -0.39883514D-05  0.00000000D+00  0.00000000D+00 -0.35276937D-04  0.00000000D+00
  0.00000000D+00 -0.11642011D-03  0.00000000D+00  0.00000000D+00  0.31050695D-03
 -0.00000000D+00 -0.00000000D+00  0.69867923D-07  0.75562360D-07  0.75562360D-07
 -0.00000000D+00 -0.00000000D+00  0.00000000D+00  0.15564970D-05  0.16134414D-05
  0.16134414D-05  0.00000000D+00  0.00000000D+00  0.00000000D+00 -0.21349049D-02
 -0.48942129D-02  0.14816564D-01 -0.14093077D-01  0.42867647D-02  0.87907899D-02
  0.10950184D-03 -0.45913255D-02 -0.23449405D-02  0.52616935D-03  0.39883514D-05
 -0.00000000D+00 -0.00000000D+00  0.35276937D-04 -0.00000000D+00 -0.00000000D+00
  0.11642011D-03 -0.00000000D+00 -0.00000000D+00 -0.31050695D-03  0.00000000D+00
  0.00000000D+00  0.69867923D-07  0.75562360D-07  0.75562360D-07  0.00000000D+00
  0.00000000D+00 -0.00000000D+00  0.15564970D-05  0.16134414D-05  0.16134414D-05
 -0.00000000D+00 -0.00000000D+00 -0.00000000D+00
MO   20     MO 0.0        OCC NO =    0.0000000  ORB. ENERGY =    0.035591
 -0.70062483D-04 -0.18276608D-03 -0.45469593D+00  0.20399119D+00 -0.16298309D-02
  0.10046249D-01 -0.11319746D-02 -0.33915517D-02 -0.23125042D-02  0.56745565D-03
  0.29892519D-04 -0.14254109D-12 -0.14254109D-12  0.32866536D-04 -0.00000000D+00
 -0.56278389D-12 -0.40203743D-02  0.00000000D+00  0.00000000D+00  0.54522537D-02
 -0.00000000D+00 -0.00000000D+00  0.17893136D-05  0.18583599D-05  0.18583599D-05
 -0.00000000D+00 -0.00000000D+00 -0.00000000D+00  0.16236794D-04  0.15755264D-04
  0.15755264D-04 -0.00000000D+00 -0.00000000D+00  0.00000000D+00  0.70062483D-04
  0.18276607D-03  0.45469593D+00 -0.20399119D+00  0.16298309D-02 -0.10046249D-01
  0.11319746D-02  0.33915517D-02  0.23125042D-02 -0.56745565D-03  0.29892519D-04
  0.14254109D-12  0.14254109D-12  0.32866535D-04  0.00000000D+00  0.56278389D-12
 -0.40203743D-02 -0.00000000D+00 -0.00000000D+00  0.54522537D-02  0.00000000D+00
  0.00000000D+00 -0.17893136D-05 -0.18583599D-05 -0.18583599D-05 -0.00000000D+00
 -0.00000000D+00  0.00000000D+00 -0.16236794D-04 -0.15755264D-04 -0.15755264D-04
 -0.00000000D+00 -0.00000000D+00 -0.00000000D+00
MO   21     MO 0.0        OCC NO =    0.0000000  ORB. ENERGY =    0.037123
 -0.00000000D+00  0.00000000D+00  0.00000000D+00 -0.00000000D+00  0.00000000D+00
  0.00000000D+00  0.00000000D+00 -0.00000000D+00 -0.00000000D+00  0.00000000D+00
 -0.00000000D+00 -0.00000000D+00 -0.00000000D+00  0.00000000D+00 -0.00000000D+00
  0.00000000D+00  0.00000000D+00 -0.00000000D+00  0.00000000D+00 -0.00000000D+00
  0.00000000D+00 -0.00000000D+00 -0.00000000D+00 -0.43547955D-07  0.43547955D-07
  0.00000000D+00  0.00000000D+00 -0.23918339D-08 -0.00000000D+00  0.60732476D-06
 -0.60732476D-06 -0.00000000D+00 -0.00000000D+00  0.33356795D-07 -0.00000000D+00
  0.00000000D+00 -0.00000000D+00  0.00000000D+00  0.00000000D+00 -0.00000000D+00
  0.00000000D+00  0.00000000D+00  0.00000000D+00 -0.00000000D+00 -0.00000000D+00
 -0.00000000D+00 -0.00000000D+00  0.00000000D+00 -0.00000000D+00  0.00000000D+00
  0.00000000D+00  0.00000000D+00 -0.00000000D+00 -0.00000000D+00 -0.00000000D+00
  0.00000000D+00  0.00000000D+00 -0.43547955D-07  0.43547955D-07 -0.00000000D+00
 -0.00000000D+00 -0.23918339D-08  0.00000000D+00  0.60732476D-06 -0.60732476D-06
  0.00000000D+00  0.00000000D+00  0.33356795D-07
MO   22     MO 0.0        OCC NO =    0.0000000  ORB. ENERGY =    0.037123
 -0.00000000D+00 -0.00000000D+00 -0.00000000D+00  0.00000000D+00 -0.00000000D+00
 -0.00000000D+00 -0.00000000D+00  0.00000000D+00  0.00000000D+00 -0.00000000D+00
  0.00000000D+00  0.00000000D+00 -0.00000000D+00  0.00000000D+00  0.00000000D+00
 -0.00000000D+00 -0.00000000D+00 -0.00000000D+00  0.00000000D+00  0.00000000D+00
  0.00000000D+00 -0.00000000D+00  0.00000000D+00 -0.11959176D-08  0.11959176D-08
 -0.00000000D+00  0.00000000D+00  0.87095910D-07  0.00000000D+00  0.16678393D-07
 -0.16678393D-07  0.00000000D+00 -0.00000000D+00 -0.12146495D-05  0.00000000D+00
  0.00000000D+00  0.00000000D+00 -0.00000000D+00  0.00000000D+00 -0.00000000D+00
  0.00000000D+00 -0.00000000D+00  0.00000000D+00 -0.00000000D+00  0.00000000D+00
  0.00000000D+00 -0.00000000D+00  0.00000000D+00  0.00000000D+00 -0.00000000D+00
 -0.00000000D+00  0.00000000D+00 -0.00000000D+00  0.00000000D+00 -0.00000000D+00
  0.00000000D+00 -0.00000000D+00 -0.11959176D-08  0.11959176D-08  0.00000000D+00
 -0.00000000D+00  0.87095910D-07 -0.00000000D+00  0.16678393D-07 -0.16678393D-07
 -0.00000000D+00  0.00000000D+00 -0.12146495D-05
MO   23     MO 0.0        OCC NO =    0.0000000  ORB. ENERGY =    0.041270
  0.00000000D+00  0.00000000D+00  0.00000000D+00 -0.00000000D+00 -0.00000000D+00
  0.00000000D+00 -0.00000000D+00 -0.00000000D+00 -0.00000000D+00  0.00000000D+00
 -0.00000000D+00 -0.12408801D-05  0.14711730D-05  0.00000000D+00  0.32756044D-04
 -0.38835186D-04  0.00000000D+00 -0.12522192D-03  0.14846166D-03 -0.00000000D+00
  0.17425915D-03 -0.20659962D-03 -0.00000000D+00 -0.00000000D+00 -0.00000000D+00
 -0.72278710D-06  0.85692800D-06 -0.00000000D+00 -0.00000000D+00 -0.00000000D+00
 -0.00000000D+00  0.34167936D-05 -0.40509109D-05  0.00000000D+00  0.00000000D+00
 -0.00000000D+00 -0.00000000D+00  0.00000000D+00 -0.00000000D+00 -0.00000000D+00
 -0.00000000D+00  0.00000000D+00  0.00000000D+00  0.00000000D+00 -0.00000000D+00
 -0.12408801D-05  0.14711730D-05 -0.00000000D+00  0.32756044D-04 -0.38835186D-04
  0.00000000D+00 -0.12522192D-03  0.14846166D-03 -0.00000000D+00  0.17425915D-03
 -0.20659962D-03  0.00000000D+00  0.00000000D+00  0.00000000D+00  0.72278710D-06
 -0.85692800D-06  0.00000000D+00  0.00000000D+00  0.00000000D+00  0.00000000D+00
 -0.34167936D-05  0.40509109D-05 -0.00000000D+00
MO   24     MO 0.0        OCC NO =    0.0000000  ORB. ENERGY =    0.041270
  0.00000000D+00 -0.00000000D+00  0.00000000D+00 -0.00000000D+00 -0.00000000D+00
  0.00000000D+00 -0.00000000D+00 -0.00000000D+00 -0.00000000D+00  0.00000000D+00
 -0.00000000D+00  0.14711730D-05  0.12408801D-05  0.00000000D+00 -0.38835186D-04
 -0.32756044D-04  0.00000000D+00  0.14846166D-03  0.12522192D-03 -0.00000000D+00
 -0.20659962D-03 -0.17425915D-03 -0.00000000D+00 -0.00000000D+00 -0.00000000D+00
  0.85692800D-06  0.72278710D-06 -0.00000000D+00 -0.00000000D+00 -0.00000000D+00
 -0.00000000D+00 -0.40509109D-05 -0.34167936D-05  0.00000000D+00  0.00000000D+00
 -0.00000000D+00 -0.00000000D+00  0.00000000D+00  0.00000000D+00 -0.00000000D+00
  0.00000000D+00  0.00000000D+00  0.00000000D+00 -0.00000000D+00 -0.00000000D+00
  0.14711730D-05  0.12408801D-05  0.00000000D+00 -0.38835186D-04 -0.32756044D-04