[Molden Format]
[Atoms] AU
E+       1       4     0.00000000     0.00000000     0.00000000
E+       2       4     9.60000000     0.00000000     0.00000000
[GTO]
  1 0
s  1 1.00
   1.0000000000E-04   1.0000000000E+00
s  1 1.00
   3.0000000000E-04   1.0000000000E+00
s  1 1.00
   9.0000000000E-04   1.0000000000E+00
s  1 1.00
   2.7000000000E-03   1.0000000000E+00
s  1 1.00
   8.1000000000E-03   1.0000000000E+00
s  1 1.00
   2.4300000000E-02   1.0000000000E+00
s  1 1.00
   7.2900000000E-02   1.0000000000E+00
s  1 1.00
   2.1870000000E-01   1.0000000000E+00
s  1 1.00
   6.5610000000E-01   1.0000000000E+00
s  1 1.00
   1.9683000000E+00   1.0000000000E+00
p  1 1.00
   1.0000000000E-04   1.0000000000E+00
p  1 1.00
   3.0000000000E-04   1.0000000000E+00
p  1 1.00
   9.0000000000E-04   1.0000000000E+00
p  1 1.00
   2.7000000000E-03   1.0000000000E+00
d  1 1.00
   1.0000000000E-04   1.0000000000E+00
d  1 1.00
   3.0000000000E-04   1.0000000000E+00
 
  2 0
s  1 1.00
   1.0000000000E-04   1.0000000000E+00
s  1 1.00
   3.0000000000E-04   1.0000000000E+00
s  1 1.00
   9.0000000000E-04   1.0000000000E+00
s  1 1.00
   2.7000000000E-03   1.0000000000E+00
s  1 1.00
   8.1000000000E-03   1.0000000000E+00
s  1 1.00
   2.4300000000E-02   1.0000000000E+00
s  1 1.00
   7.2900000000E-02   1.0000000000E+00
s  1 1.00
   2.1870000000E-01   1.0000000000E+00
s  1 1.00
   6.5610000000E-01   1.0000000000E+00
s  1 1.00
   1.9683000000E+00   1.0000000000E+00
p  1 1.00
   1.0000000000E-04   1.0000000000E+00
p  1 1.00
   3.0000000000E-04   1.0000000000E+00
p  1 1.00
   9.0000000000E-04   1.0000000000E+00
p  1 1.00
   2.7000000000E-03   1.0000000000E+00
d  1 1.00
   1.0000000000E-04   1.0000000000E+00
d  1 1.00
   3.0000000000E-04   1.0000000000E+00
 
 
[MO]
Ene=    -1.06203E-02
Spin= Alpha
Occup=   1.0000000000
   1      -0.00419574
   2      -0.00861905
   3       0.01489860
   4       0.07854286
   5       0.21487370
   6       0.26556352
   7       0.13192677
   8      -0.11470459
   9      -0.00900463
  10       0.00029666
  11      -0.00047615
  12       0.00000000
  13       0.00000000
  14      -0.00170580
  15      -0.00000000
  16       0.00000000
  17      -0.02610253
  18      -0.00000000
  19      -0.00000000
  20       0.03258842
  21       0.00000000
  22       0.00000000
  23       0.00108261
  24       0.00032625
  25       0.00032625
  26       0.00000000
  27      -0.00000000
  28       0.00000000
  29       0.00095968
  30       0.00344110
  31       0.00344110
  32      -0.00000000
  33       0.00000000
  34      -0.00000000
  35      -0.00419574
  36      -0.00861905
  37       0.01489860
  38       0.07854286
  39       0.21487370
  40       0.26556352
  41       0.13192677
  42      -0.11470459
  43      -0.00900463
  44       0.00029666
  45       0.00047615
  46      -0.00000000
  47      -0.00000000
  48       0.00170580
  49       0.00000000
  50      -0.00000000
  51       0.02610253
  52       0.00000000
  53      -0.00000000
  54      -0.03258842
  55      -0.00000000
  56      -0.00000000
  57       0.00108261
  58       0.00032625
  59       0.00032625
  60      -0.00000000
  61       0.00000000
  62      -0.00000000
  63       0.00095968
  64       0.00344110
  65       0.00344110
  66       0.00000000
  67      -0.00000000
  68       0.00000000
Ene=     2.43510E-03
Spin= Alpha
Occup=   0.0000000000
   1       0.15841781
   2       0.32564958
   3      -1.17045206
   4       0.65283511
   5      -0.13213549
   6       0.12688257
   7       0.00191655
   8      -0.01433454
   9      -0.00325425
  10       0.00033920
  11       0.01643727
  12      -0.00000000
  13      -0.00000000
  14       0.06900636
  15       0.00000000
  16      -0.00000000
  17      -0.13055487
  18      -0.00000000
  19       0.00000000
  20       0.00636792
  21       0.00000000
  22      -0.00000000
  23      -0.01999974
  24      -0.02246261
  25      -0.02246261
  26       0.00000000
  27      -0.00000000
  28       0.00000000
  29      -0.09624593
  30      -0.10205849
  31      -0.10205849
  32      -0.00000000
  33       0.00000000
  34      -0.00000000
  35       0.15841781
  36       0.32564958
  37      -1.17045208
  38       0.65283511
  39      -0.13213549
  40       0.12688257
  41       0.00191655
  42      -0.01433454
  43      -0.00325425
  44       0.00033920
  45      -0.01643727
  46       0.00000000
  47       0.00000000
  48      -0.06900636
  49      -0.00000000
  50       0.00000000
  51       0.13055487
  52       0.00000000
  53      -0.00000000
  54      -0.00636792
  55      -0.00000000
  56       0.00000000
  57      -0.01999974
  58      -0.02246262
  59      -0.02246262
  60      -0.00000000
  61       0.00000000
  62      -0.00000000
  63      -0.09624593
  64      -0.10205849
  65      -0.10205849
  66       0.00000000
  67      -0.00000000
  68       0.00000000
Ene=     2.44194E-03
Spin= Alpha
Occup=   0.0000000000
   1       0.00571462
   2       0.00261865
   3     -21.40738582
   4       1.95404269
   5      -0.36510451
   6      -0.07822492
   7      -0.05725652
   8       0.04640886
   9       0.00316522
  10      -0.00003849
  11      -0.10443503
  12       0.00000000
  13      -0.00000000
  14      -0.06197601
  15       0.00000000
  16       0.00000000
  17      -2.63656067
  18      -0.00000000
  19      -0.00000000
  20       0.53888312
  21       0.00000000
  22       0.00000000
  23      -0.36679778
  24      -0.44060251
  25      -0.44060251
  26       0.00000000
  27      -0.00000000
  28       0.00000000
  29      -0.78042603
  30      -0.66135969
  31      -0.66135969
  32       0.00000000
  33       0.00000000
  34      -0.00000000
  35      -0.00571462
  36      -0.00261865
  37      21.40738582
  38      -1.95404269
  39       0.36510451
  40       0.07822492
  41       0.05725652
  42      -0.04640886
  43      -0.00316522
  44       0.00003849
  45      -0.10443504
  46      -0.00000000
  47       0.00000000
  48      -0.06197601
  49      -0.00000000
  50      -0.00000000
  51      -2.63656067
  52       0.00000000
  53       0.00000000
  54       0.53888312
  55      -0.00000000
  56      -0.00000000
  57       0.36679778
  58       0.44060251
  59       0.44060251
  60       0.00000000
  61      -0.00000000
  62      -0.00000000
  63       0.78042603
  64       0.66135969
  65       0.66135969
  66       0.00000000
  67       0.00000000
  68       0.00000000
Ene=     3.51624E-03
Spin= Alpha
Occup=   0.0000000000
   1       0.00000000
   2       0.00000000
   3      -0.00000000
   4      -0.00000000
   5       0.00000000
   6      -0.00000000
   7       0.00000000
   8      -0.00000000
   9       0.00000000
  10      -0.00000000
  11      -0.00000000
  12       0.02484801
  13      -0.01146457
  14       0.00000000
  15      -0.10861863
  16       0.05011531
  17      -0.00000000
  18       0.51244396
  19      -0.23643541
  20      -0.00000000
  21       0.02082324
  22      -0.00960759
  23      -0.00000000
  24      -0.00000000
  25      -0.00000000
  26       0.15397598
  27      -0.07104264
  28      -0.00000000
  29      -0.00000000
  30      -0.00000000
  31      -0.00000000
  32      -0.08605452
  33       0.03970451
  34       0.00000000
  35      -0.00000000
  36       0.00000000
  37       0.00000000
  38       0.00000000
  39      -0.00000000
  40       0.00000000
  41      -0.00000000
  42      -0.00000000
  43      -0.00000000
  44       0.00000000
  45       0.00000000
  46       0.02484801
  47      -0.01146457
  48       0.00000000
  49      -0.10861863
  50       0.05011531
  51      -0.00000000
  52       0.51244396
  53      -0.23643541
  54      -0.00000000
  55       0.02082324
  56      -0.00960759
  57       0.00000000
  58       0.00000000
  59       0.00000000
  60      -0.15397598
  61       0.07104264
  62       0.00000000
  63       0.00000000
  64       0.00000000
  65       0.00000000
  66       0.08605452
  67      -0.03970451
  68      -0.00000000
Ene=     3.51624E-03
Spin= Alpha
Occup=   0.0000000000
   1       0.00000000
   2      -0.00000000
   3      -0.00000000
   4       0.00000000
   5      -0.00000000
   6       0.00000000
   7       0.00000000
   8      -0.00000000
   9      -0.00000000
  10      -0.00000000
  11       0.00000000
  12       0.01146457
  13       0.02484801
  14       0.00000000
  15      -0.05011531
  16      -0.10861863
  17      -0.00000000
  18       0.23643541
  19       0.51244396
  20      -0.00000000
  21       0.00960759
  22       0.02082324
  23       0.00000000
  24       0.00000000
  25       0.00000000
  26       0.07104264
  27       0.15397598
  28       0.00000000
  29       0.00000000
  30       0.00000000
  31       0.00000000
  32      -0.03970451
  33      -0.08605452
  34      -0.00000000
  35      -0.00000000
  36       0.00000000
  37       0.00000000
  38      -0.00000000
  39       0.00000000
  40      -0.00000000
  41      -0.00000000
  42       0.00000000
  43       0.00000000
  44       0.00000000
  45       0.00000000
  46       0.01146457
  47       0.02484801
  48       0.00000000
  49      -0.05011531
  50      -0.10861863
  51      -0.00000000
  52       0.23643541
  53       0.51244396
  54      -0.00000000
  55       0.00960759
  56       0.02082324
  57      -0.00000000
  58      -0.00000000
  59      -0.00000000
  60      -0.07104264
  61      -0.15397598
  62      -0.00000000
  63      -0.00000000
  64      -0.00000000
  65      -0.00000000
  66       0.03970451
  67       0.08605452
  68       0.00000000
Ene=     5.80846E-03
Spin= Alpha
Occup=   0.0000000000
   1      -0.00829607
   2      -0.00341221
   3      34.99978030
   4      -2.60565343
   5      -0.24006700
   6      -0.18559473
   7      -0.06276489
   8       0.06154589
   9       0.00586768
  10      -0.00028459
  11       0.15097811
  12      -0.00000000
  13       0.00000000
  14       0.09715122
  15      -0.00000000
  16      -0.00000000
  17       4.31307822
  18       0.00000000
  19       0.00000000
  20      -0.09825810
  21       0.00000000
  22       0.00000000
  23       0.52715454
  24       0.63837236
  25       0.63837236
  26      -0.00000000
  27       0.00000000
  28      -0.00000000
  29       1.14588258
  30       0.96563998
  31       0.96563998
  32      -0.00000000
  33      -0.00000000
  34       0.00000000
  35       0.00829607
  36       0.00341221
  37     -34.99978030
  38       2.60565343
  39       0.24006700
  40       0.18559473
  41       0.06276489
  42      -0.06154589
  43      -0.00586768
  44       0.00028459
  45       0.15097811
  46       0.00000000
  47      -0.00000000
  48       0.09715122
  49       0.00000000
  50       0.00000000
  51       4.31307822
  52      -0.00000000
  53      -0.00000000
  54      -0.09825810
  55      -0.00000000
  56      -0.00000000
  57      -0.52715454
  58      -0.63837236
  59      -0.63837236
  60      -0.00000000
  61       0.00000000
  62       0.00000000
  63      -1.14588258
  64      -0.96563998
  65      -0.96563998
  66      -0.00000000
  67      -0.00000000
  68      -0.00000000
Ene=     6.74914E-03
Spin= Alpha
Occup=   0.0000000000
   1       0.00000000
   2       0.00000000
   3       0.00000000
   4       0.00000000
   5       0.00000000
   6       0.00000000
   7       0.00000000
   8      -0.00000000
   9      -0.00000000
  10      -0.00000000
  11      -0.00000000
  12      -0.00014980
  13       0.00106150
  14      -0.00000000
  15       0.00039723
  16      -0.00281487
  17       0.00000000
  18      -0.41964980
  19       2.97371556
  20       0.00000000
  21      -0.09438784
  22       0.66884957
  23      -0.00000000
  24      -0.00000000
  25      -0.00000000
  26       0.00479608
  27      -0.03398589
  28      -0.00000000
  29      -0.00000000
  30      -0.00000000
  31      -0.00000000
  32      -0.01418469
  33       0.10051532
  34       0.00000000
  35       0.00000000
  36       0.00000000
  37      -0.00000000
  38      -0.00000000
  39      -0.00000000
  40      -0.00000000
  41      -0.00000000
  42       0.00000000
  43       0.00000000
  44      -0.00000000
  45      -0.00000000
  46       0.00014980
  47      -0.00106150
  48      -0.00000000
  49      -0.00039723
  50       0.00281487
  51       0.00000000
  52       0.41964980
  53      -2.97371556
  54       0.00000000
  55       0.09438784
  56      -0.66884957
  57       0.00000000
  58       0.00000000
  59       0.00000000
  60       0.00479608
  61      -0.03398589
  62       0.00000000
  63       0.00000000
  64       0.00000000
  65       0.00000000
  66      -0.01418469
  67       0.10051532
  68      -0.00000000
Ene=     6.74914E-03
Spin= Alpha
Occup=   0.0000000000
   1       0.00000000
   2       0.00000000
   3       0.00000000
   4       0.00000000
   5       0.00000000
   6       0.00000000
   7       0.00000000
   8      -0.00000000
   9      -0.00000000
  10      -0.00000000
  11      -0.00000000
  12       0.00106150
  13       0.00014980
  14      -0.00000000
  15      -0.00281487
  16      -0.00039723
  17       0.00000000
  18       2.97371556
  19       0.41964980
  20       0.00000000
  21       0.66884957
  22       0.09438784
  23      -0.00000000
  24      -0.00000000
  25      -0.00000000
  26      -0.03398589
  27      -0.00479608
  28      -0.00000000
  29      -0.00000000
  30      -0.00000000
  31      -0.00000000
  32       0.10051532
  33       0.01418469
  34       0.00000000
  35       0.00000000
  36      -0.00000000
  37      -0.00000000
  38      -0.00000000
  39      -0.00000000
  40      -0.00000000
  41      -0.00000000
  42       0.00000000
  43       0.00000000
  44      -0.00000000
  45      -0.00000000
  46      -0.00106150
  47      -0.00014980
  48      -0.00000000
  49       0.00281487
  50       0.00039723
  51       0.00000000
  52      -2.97371556
  53      -0.41964980
  54       0.00000000
  55      -0.66884957
  56      -0.09438784
  57       0.00000000
  58       0.00000000
  59       0.00000000
  60      -0.03398589
  61      -0.00479608
  62       0.00000000
  63       0.00000000
  64       0.00000000
  65       0.00000000
  66       0.10051532
  67       0.01418469
  68      -0.00000000
Ene=     6.76962E-03
Spin= Alpha
Occup=   0.0000000000
   1      -0.24310798
   2      -0.48540364
   3       0.41343396
   4       0.55962455
   5      -0.03862518
   6       0.00684215
   7      -0.00642188
   8       0.00351992
   9      -0.00009687
  10       0.00004578
  11      -0.02749798
  12       0.00000000
  13       0.00000000
  14      -0.09777364
  15      -0.00000000
  16       0.00000000
  17      -2.47332963
  18       0.00000000
  19       0.00000000
  20      -0.60876957
  21       0.00000000
  22       0.00000000
  23       0.06494105
  24       0.01874857
  25       0.01874857
  26      -0.00000000
  27      -0.00000000
  28      -0.00000000
  29       0.04194715
  30       0.19939616
  31       0.19939616
  32       0.00000000
  33       0.00000000
  34       0.00000000
  35      -0.24310798
  36      -0.48540364
  37       0.41343396
  38       0.55962455
  39      -0.03862518
  40       0.00684215
  41      -0.00642188
  42       0.00351992
  43      -0.00009687
  44       0.00004578
  45       0.02749798
  46      -0.00000000
  47      -0.00000000
  48       0.09777364
  49       0.00000000
  50      -0.00000000
  51       2.47332962
  52      -0.00000000
  53      -0.00000000
  54       0.60876957
  55      -0.00000000
  56      -0.00000000
  57       0.06494105
  58       0.01874857
  59       0.01874857
  60      -0.00000000
  61      -0.00000000
  62       0.00000000
  63       0.04194715
  64       0.19939616
  65       0.19939616
  66       0.00000000
  67       0.00000000
  68      -0.00000000
Ene=     9.05064E-03
Spin= Alpha
Occup=   0.0000000000
   1       0.00000000
   2       0.00000000
   3       0.00000000
   4       0.00000000
   5       0.00000000
   6       0.00000000
   7       0.00000000
   8      -0.00000000
   9      -0.00000000
  10       0.00000000
  11      -0.00000000
  12      -0.01498100
  13       0.02194651
  14      -0.00000000
  15       0.06628177
  16      -0.09709992
  17       0.00000000
  18      -0.36466206
  19       0.53421412
  20       0.00000000
  21       0.43045992
  22      -0.63060512
  23      -0.00000000
  24      -0.00000000
  25      -0.00000000
  26      -0.08500845
  27       0.12453369
  28       0.00000000
  29      -0.00000000
  30      -0.00000000
  31      -0.00000000
  32       0.04472429
  33      -0.06551915
  34      -0.00000000
  35       0.00000000
  36      -0.00000000
  37      -0.00000000
  38      -0.00000000
  39       0.00000000
  40      -0.00000000
  41       0.00000000
  42      -0.00000000
  43       0.00000000
  44      -0.00000000
  45      -0.00000000
  46      -0.01498100
  47       0.02194651
  48      -0.00000000
  49       0.06628177
  50      -0.09709992
  51       0.00000000
  52      -0.36466206
  53       0.53421412
  54       0.00000000
  55       0.43045992
  56      -0.63060512
  57       0.00000000
  58       0.00000000
  59       0.00000000
  60       0.08500845
  61      -0.12453369
  62      -0.00000000
  63       0.00000000
  64       0.00000000
  65       0.00000000
  66      -0.04472429
  67       0.06551915
  68       0.00000000
Ene=     9.05064E-03
Spin= Alpha
Occup=   0.0000000000
   1      -0.00000000
   2      -0.00000000
   3      -0.00000000
   4      -0.00000000
   5       0.00000000
   6      -0.00000000
   7      -0.00000000
   8       0.00000000
   9       0.00000000
  10      -0.00000000
  11       0.00000000
  12      -0.02194651
  13      -0.01498100
  14       0.00000000
  15       0.09709992
  16       0.06628177
  17      -0.00000000
  18      -0.53421412
  19      -0.36466206
  20      -0.00000000
  21       0.63060512
  22       0.43045992
  23       0.00000000
  24       0.00000000
  25       0.00000000
  26      -0.12453369
  27      -0.08500845
  28       0.00000000
  29       0.00000000
  30       0.00000000
  31       0.00000000
  32       0.06551915
  33       0.04472429
  34       0.00000000
  35       0.00000000
  36       0.00000000
  37       0.00000000
  38       0.00000000
  39      -0.00000000
  40       0.00000000
  41       0.00000000
  42      -0.00000000
  43      -0.00000000
  44       0.00000000
  45       0.00000000
  46      -0.02194651
  47      -0.01498100
  48       0.00000000
  49       0.09709992
  50       0.06628177
  51      -0.00000000
  52      -0.53421412
  53      -0.36466206
  54      -0.00000000
  55       0.63060512
  56       0.43045992
  57      -0.00000000
  58      -0.00000000
  59      -0.00000000
  60       0.12453369
  61       0.08500845
  62      -0.00000000
  63      -0.00000000
  64      -0.00000000
  65      -0.00000000
  66      -0.06551915
  67      -0.04472429
  68      -0.00000000
Ene=     1.04683E-02
Spin= Alpha
Occup=   0.0000000000
   1      -0.13275300
   2       0.12449281
   3      -0.86899288
   4       1.57446117
   5      -0.89470390
   6       0.04614468
   7      -0.09557989
   8       0.05824730
   9       0.00056543
  10       0.00044130
  11      -0.01406585
  12      -0.00000000
  13      -0.00000000
  14       0.01393575
  15       0.00000000
  16      -0.00000000
  17       0.58266045
  18      -0.00000000
  19       0.00000000
  20      -0.20986341
  21       0.00000000
  22      -0.00000000
  23       0.01093373
  24       0.02643582
  25       0.02643582
  26       0.00000000
  27      -0.00000000
  28      -0.00000000
  29       0.05613649
  30       0.01394132
  31       0.01394132
  32      -0.00000000
  33       0.00000000
  34      -0.00000000
  35      -0.13275300
  36       0.12449281
  37      -0.86899343
  38       1.57446107
  39      -0.89470390
  40       0.04614468
  41      -0.09557989
  42       0.05824730
  43       0.00056543
  44       0.00044130
  45       0.01406585
  46       0.00000000
  47       0.00000000
  48      -0.01393575
  49      -0.00000000
  50       0.00000000
  51      -0.58266037
  52       0.00000000
  53      -0.00000000
  54       0.20986344
  55      -0.00000000
  56       0.00000000
  57       0.01093373
  58       0.02643582
  59       0.02643582
  60      -0.00000000
  61       0.00000000
  62       0.00000000
  63       0.05613649
  64       0.01394132
  65       0.01394132
  66       0.00000000
  67      -0.00000000
  68       0.00000000
Ene=     1.04886E-02
Spin= Alpha
Occup=   0.0000000000
   1       0.00359312
   2       0.07981733
   3     190.21281987
   4      32.45428661
   5      -0.26483590
   6       0.07696907
   7      -0.00050889
   8      -0.00745053
   9      -0.00165845
  10       0.00016716
  11      -0.09323665
  12      -0.00000000
  13       0.00000000
  14      -0.31311412
  15      -0.00000000
  16      -0.00000000
  17      27.71381549
  18       0.00000000
  19       0.00000000
  20       9.12001618
  21      -0.00000000
  22      -0.00000000
  23      -0.70091435
  24      -0.07284542
  25      -0.07284542
  26      -0.00000000
  27       0.00000000
  28      -0.00000000
  29      -0.77500129
  30      -1.73227516
  31      -1.73227516
  32      -0.00000000
  33      -0.00000000
  34       0.00000000
  35      -0.00359312
  36      -0.07981733
  37    -190.21281987
  38     -32.45428662
  39       0.26483590
  40      -0.07696907
  41       0.00050889
  42       0.00745053
  43       0.00165845
  44      -0.00016716
  45      -0.09323664
  46       0.00000000
  47      -0.00000000
  48      -0.31311411
  49       0.00000000
  50       0.00000000
  51      27.71381549
  52      -0.00000000
  53      -0.00000000
  54       9.12001618
  55       0.00000000
  56       0.00000000
  57       0.70091434
  58       0.07284542
  59       0.07284542
  60      -0.00000000
  61       0.00000000
  62       0.00000000
  63       0.77500129
  64       1.73227516
  65       1.73227516
  66      -0.00000000
  67      -0.00000000
  68      -0.00000000
Ene=     1.46252E-02
Spin= Alpha
Occup=   0.0000000000
   1      -0.00000000
   2      -0.00000000
   3      -0.00000000
   4       0.00000000
   5       0.00000000
   6       0.00000000
   7       0.00000000
   8      -0.00000000
   9      -0.00000000
  10       0.00000000
  11       0.00000000
  12       0.00066970
  13      -0.00060639
  14       0.00000000
  15      -0.00052271
  16       0.00047329
  17      -0.00000000
  18       3.07518111
  19      -2.78447851
  20       0.00000000
  21      -1.93296721
  22       1.75024021
  23       0.00000000
  24       0.00000000
  25       0.00000000
  26      -0.02833965
  27       0.02566065
  28       0.00000000
  29       0.00000000
  30       0.00000000
  31       0.00000000
  32       0.08565847
  33      -0.07756102
  34      -0.00000000
  35      -0.00000000
  36       0.00000000
  37       0.00000000
  38      -0.00000000
  39      -0.00000000
  40      -0.00000000
  41      -0.00000000
  42       0.00000000
  43       0.00000000
  44      -0.00000000
  45       0.00000000
  46      -0.00066970
  47       0.00060639
  48       0.00000000
  49       0.00052271
  50      -0.00047329
  51      -0.00000000
  52      -3.07518111
  53       2.78447851
  54       0.00000000
  55       1.93296721
  56      -1.75024021
  57      -0.00000000
  58      -0.00000000
  59      -0.00000000
  60      -0.02833965
  61       0.02566065
  62      -0.00000000
  63      -0.00000000
  64      -0.00000000
  65      -0.00000000
  66       0.08565847
  67      -0.07756102
  68       0.00000000
Ene=     1.46252E-02
Spin= Alpha
Occup=   0.0000000000
   1      -0.00000000
   2       0.00000000
   3       0.00000000
   4      -0.00000000
   5      -0.00000000
   6      -0.00000000
   7      -0.00000000
   8       0.00000000
   9       0.00000000
  10      -0.00000000
  11      -0.00000000
  12       0.00060639
  13       0.00066970
  14      -0.00000000
  15      -0.00047329
  16      -0.00052271
  17       0.00000000
  18       2.78447851
  19       3.07518111
  20      -0.00000000
  21      -1.75024021
  22      -1.93296721
  23      -0.00000000
  24      -0.00000000
  25      -0.00000000
  26      -0.02566065
  27      -0.02833965
  28       0.00000000
  29      -0.00000000
  30      -0.00000000
  31      -0.00000000
  32       0.07756102
  33       0.08565847
  34       0.00000000
  35      -0.00000000
  36      -0.00000000
  37      -0.00000000
  38       0.00000000
  39       0.00000000
  40       0.00000000
  41       0.00000000
  42      -0.00000000
  43      -0.00000000
  44       0.00000000
  45      -0.00000000
  46      -0.00060639
  47      -0.00066970
  48      -0.00000000
  49       0.00047329
  50       0.00052271
  51       0.00000000
  52      -2.78447851
  53      -3.07518111
  54      -0.00000000
  55       1.75024021
  56       1.93296721
  57       0.00000000
  58       0.00000000
  59       0.00000000
  60      -0.02566065
  61      -0.02833965
  62      -0.00000000
  63       0.00000000
  64       0.00000000
  65       0.00000000
  66       0.07756102
  67       0.08565847
  68      -0.00000000
Ene=     1.48910E-02
Spin= Alpha
Occup=   0.0000000000
   1       0.52696110
   2       0.91568430
   3      -1.35752540
   4      -0.00942740
   5       0.63684068
   6      -0.09850805
   7       0.05031184
   8      -0.02321143
   9       0.00140510
  10      -0.00040770
  11       0.05711895
  12      -0.00000000
  13      -0.00000000
  14       0.19603302
  15       0.00000000
  16      -0.00000000
  17       3.37834046
  18       0.00000000
  19       0.00000000
  20      -2.07103243
  21      -0.00000000
  22      -0.00000000
  23      -0.10658000
  24      -0.05933663
  25      -0.05933663
  26       0.00000000
  27      -0.00000000
  28       0.00000000
  29      -0.17654429
  30      -0.36257511
  31      -0.36257511
  32       0.00000000
  33       0.00000000
  34      -0.00000000
  35       0.52696110
  36       0.91568430
  37      -1.35752541
  38      -0.00942740
  39       0.63684068
  40      -0.09850805
  41       0.05031184
  42      -0.02321143
  43       0.00140510
  44      -0.00040770
  45      -0.05711895
  46       0.00000000
  47       0.00000000
  48      -0.19603302
  49      -0.00000000
  50       0.00000000
  51      -3.37834046
  52      -0.00000000
  53      -0.00000000
  54       2.07103243
  55       0.00000000
  56       0.00000000
  57      -0.10658000
  58      -0.05933663
  59      -0.05933663
  60      -0.00000000
  61       0.00000000
  62      -0.00000000
  63      -0.17654429
  64      -0.36257511
  65      -0.36257511
  66       0.00000000
  67      -0.00000000
  68       0.00000000
Ene=     1.56698E-02
Spin= Alpha
Occup=   0.0000000000
   1      -0.00727113
   2      -0.06444604
   3    -110.05704826
   4       6.38387023
   5       1.34945499
   6       0.00430624
   7       0.12116752
   8      -0.07852020
   9      -0.00222233
  10      -0.00039367
  11       0.15187523
  12       0.00000000
  13      -0.00000000
  14       0.35194657
  15       0.00000000
  16       0.00000000
  17     -17.06204931
  18       0.00000000
  19       0.00000000
  20       2.63140816
  21      -0.00000000
  22      -0.00000000
  23       0.78503286
  24       0.39648712
  25       0.39648712
  26       0.00000000
  27      -0.00000000
  28       0.00000000
  29       1.35560949
  30       1.92178964
  31       1.92178964
  32       0.00000000
  33       0.00000000
  34      -0.00000000
  35       0.00727113
  36       0.06444603
  37     110.05704826
  38      -6.38387023
  39      -1.34945499
  40      -0.00430624
  41      -0.12116752
  42       0.07852020
  43       0.00222233
  44       0.00039367
  45       0.15187522
  46      -0.00000000
  47       0.00000000
  48       0.35194657
  49      -0.00000000
  50      -0.00000000
  51     -17.06204931
  52      -0.00000000
  53      -0.00000000
  54       2.63140816
  55       0.00000000
  56       0.00000000
  57      -0.78503286
  58      -0.39648712
  59      -0.39648712
  60       0.00000000
  61      -0.00000000
  62      -0.00000000
  63      -1.35560949
  64      -1.92178964
  65      -1.92178964
  66       0.00000000
  67       0.00000000
  68       0.00000000
Ene=     2.19023E-02
Spin= Alpha
Occup=   0.0000000000
   1       0.01886670
   2       0.14575180
   3     293.78615194
   4     -53.13090524
   5       1.82429557
   6      -0.11483675
   7       0.10454991
   8      -0.05614792
   9       0.00045138
  10      -0.00057057
  11      -0.39717554
  12      -0.00000001
  13       0.00000000
  14      -0.64661181
  15      -0.00000001
  16      -0.00000001
  17      44.00731713
  18       0.00000000
  19       0.00000000
  20     -13.35379756
  21      -0.00000000
  22       0.00000000
  23      -1.99998734
  24      -1.24188999
  25      -1.24188999
  26      -0.00000000
  27       0.00000000
  28      -0.00000000
  29      -3.08678273
  30      -4.21673952
  31      -4.21673952
  32      -0.00000000
  33      -0.00000000
  34       0.00000000
  35      -0.01886670
  36      -0.14575180
  37    -293.78615194
  38      53.13090524
  39      -1.82429557
  40       0.11483675
  41      -0.10454991
  42       0.05614792
  43      -0.00045138
  44       0.00057057
  45      -0.39717552
  46       0.00000001
  47      -0.00000000
  48      -0.64661179
  49       0.00000001
  50       0.00000001
  51      44.00731713
  52      -0.00000000
  53      -0.00000000
  54     -13.35379756
  55       0.00000000
  56      -0.00000000
  57       1.99998733
  58       1.24188999
  59       1.24188999
  60      -0.00000000
  61       0.00000000
  62       0.00000000
  63       3.08678272
  64       4.21673952
  65       4.21673952
  66      -0.00000000
  67      -0.00000000
  68      -0.00000000
Ene=     2.61837E-02
Spin= Alpha
Occup=   0.0000000000
   1      -3.03457909
   2      -3.04026844
   3       4.10113796
   4      -1.78587214
   5       0.32444133
   6       0.17194019
   7       0.00406523
   8      -0.01998101
   9      -0.00421334
  10       0.00041315
  11      -0.32255556
  12       0.00000000