[Molden Format]
[Atoms] AU
E+       1       4     0.00000000     0.00000000     0.00000000
E+       2       4    32.60000000     0.00000000     0.00000000
[GTO]
  1 0
s  1 1.00
   1.0000000000E-04   1.0000000000E+00
s  1 1.00
   3.0000000000E-04   1.0000000000E+00
s  1 1.00
   9.0000000000E-04   1.0000000000E+00
s  1 1.00
   2.7000000000E-03   1.0000000000E+00
s  1 1.00
   8.1000000000E-03   1.0000000000E+00
s  1 1.00
   2.4300000000E-02   1.0000000000E+00
s  1 1.00
   7.2900000000E-02   1.0000000000E+00
s  1 1.00
   2.1870000000E-01   1.0000000000E+00
s  1 1.00
   6.5610000000E-01   1.0000000000E+00
s  1 1.00
   1.9683000000E+00   1.0000000000E+00
p  1 1.00
   1.0000000000E-04   1.0000000000E+00
p  1 1.00
   3.0000000000E-04   1.0000000000E+00
p  1 1.00
   9.0000000000E-04   1.0000000000E+00
p  1 1.00
   2.7000000000E-03   1.0000000000E+00
d  1 1.00
   1.0000000000E-04   1.0000000000E+00
d  1 1.00
   3.0000000000E-04   1.0000000000E+00
 
  2 0
s  1 1.00
   1.0000000000E-04   1.0000000000E+00
s  1 1.00
   3.0000000000E-04   1.0000000000E+00
s  1 1.00
   9.0000000000E-04   1.0000000000E+00
s  1 1.00
   2.7000000000E-03   1.0000000000E+00
s  1 1.00
   8.1000000000E-03   1.0000000000E+00
s  1 1.00
   2.4300000000E-02   1.0000000000E+00
s  1 1.00
   7.2900000000E-02   1.0000000000E+00
s  1 1.00
   2.1870000000E-01   1.0000000000E+00
s  1 1.00
   6.5610000000E-01   1.0000000000E+00
s  1 1.00
   1.9683000000E+00   1.0000000000E+00
p  1 1.00
   1.0000000000E-04   1.0000000000E+00
p  1 1.00
   3.0000000000E-04   1.0000000000E+00
p  1 1.00
   9.0000000000E-04   1.0000000000E+00
p  1 1.00
   2.7000000000E-03   1.0000000000E+00
d  1 1.00
   1.0000000000E-04   1.0000000000E+00
d  1 1.00
   3.0000000000E-04   1.0000000000E+00
 
 
[MO]
Ene=    -3.58682E-03
Spin= Alpha
Occup=   1.0000000000
   1       0.08484826
   2      -0.07476886
   3       0.00076644
   4      -0.24470587
   5      -0.26150634
   6      -0.18444637
   7      -0.11707450
   8       0.09434046
   9       0.00638130
  10      -0.00008163
  11      -0.31465269
  12       0.00000000
  13       0.00000000
  14       0.10776165
  15       0.00000000
  16       0.00000000
  17      -0.05731915
  18       0.00000000
  19      -0.00000000
  20       0.02093720
  21      -0.00000000
  22       0.00000000
  23      -0.08820446
  24       0.00267509
  25       0.00267509
  26       0.00000000
  27       0.00000000
  28      -0.00000000
  29       0.05549612
  30       0.01093504
  31       0.01093504
  32       0.00000000
  33       0.00000000
  34       0.00000000
  35       0.08484826
  36      -0.07476886
  37       0.00076644
  38      -0.24470587
  39      -0.26150634
  40      -0.18444637
  41      -0.11707450
  42       0.09434046
  43       0.00638130
  44      -0.00008163
  45       0.31465269
  46      -0.00000000
  47      -0.00000000
  48      -0.10776165
  49      -0.00000000
  50      -0.00000000
  51       0.05731915
  52      -0.00000000
  53       0.00000000
  54      -0.02093720
  55       0.00000000
  56      -0.00000000
  57      -0.08820446
  58       0.00267509
  59       0.00267509
  60       0.00000000
  61       0.00000000
  62       0.00000000
  63       0.05549612
  64       0.01093504
  65       0.01093504
  66       0.00000000
  67       0.00000000
  68      -0.00000000
Ene=    -2.95966E-03
Spin= Alpha
Occup=   0.0000000000
   1       0.00245336
   2       0.00887634
   3       0.05827291
   4       0.31979523
   5       0.26263940
   6       0.20530016
   7       0.12095114
   8      -0.09905206
   9      -0.00700632
  10       0.00012895
  11      -0.01300863
  12      -0.00000000
  13       0.00000000
  14      -0.02245206
  15       0.00000000
  16       0.00000000
  17       0.08943709
  18      -0.00000000
  19      -0.00000000
  20      -0.01470239
  21       0.00000000
  22      -0.00000000
  23      -0.02048141
  24      -0.01065481
  25      -0.01065481
  26      -0.00000000
  27       0.00000000
  28       0.00000000
  29      -0.03476535
  30      -0.04472455
  31      -0.04472455
  32       0.00000000
  33       0.00000000
  34      -0.00000000
  35      -0.00245336
  36      -0.00887634
  37      -0.05827291
  38      -0.31979523
  39      -0.26263940
  40      -0.20530016
  41      -0.12095114
  42       0.09905206
  43       0.00700632
  44      -0.00012895
  45      -0.01300863
  46       0.00000000
  47      -0.00000000
  48      -0.02245206
  49      -0.00000000
  50      -0.00000000
  51       0.08943709
  52       0.00000000
  53       0.00000000
  54      -0.01470239
  55      -0.00000000
  56      -0.00000000
  57       0.02048141
  58       0.01065481
  59       0.01065481
  60      -0.00000000
  61       0.00000000
  62       0.00000000
  63       0.03476535
  64       0.04472455
  65       0.04472455
  66       0.00000000
  67       0.00000000
  68      -0.00000000
Ene=     4.10655E-03
Spin= Alpha
Occup=   0.0000000000
   1       0.75133199
   2       0.00511453
   3      -1.08735486
   4       0.79754754
   5       0.03064442
   6       0.11258486
   7       0.03541653
   8      -0.03431319
   9      -0.00338163
  10       0.00017763
  11      -1.80622332
  12       0.00000000
  13       0.00000000
  14       0.56722045
  15       0.00000000
  16      -0.00000000
  17      -0.49650397
  18      -0.00000000
  19       0.00000000
  20       0.05071356
  21       0.00000000
  22      -0.00000000
  23      -0.53958655
  24      -0.02328216
  25      -0.02328216
  26       0.00000000
  27       0.00000000
  28       0.00000000
  29       0.12794708
  30      -0.08283090
  31      -0.08283090
  32       0.00000000
  33      -0.00000000
  34      -0.00000000
  35       0.75133199
  36       0.00511453
  37      -1.08735486
  38       0.79754754
  39       0.03064442
  40       0.11258486
  41       0.03541653
  42      -0.03431319
  43      -0.00338163
  44       0.00017763
  45       1.80622332
  46      -0.00000000
  47      -0.00000000
  48      -0.56722045
  49      -0.00000000
  50       0.00000000
  51       0.49650397
  52       0.00000000
  53      -0.00000000
  54      -0.05071356
  55      -0.00000000
  56       0.00000000
  57      -0.53958655
  58      -0.02328216
  59      -0.02328216
  60       0.00000000
  61       0.00000000
  62      -0.00000000
  63       0.12794708
  64      -0.08283090
  65      -0.08283090
  66       0.00000000
  67      -0.00000000
  68       0.00000000
Ene=     5.19732E-03
Spin= Alpha
Occup=   0.0000000000
   1       0.00000000
   2       0.00000000
   3      -0.00000000
   4       0.00000000
   5      -0.00000000
   6       0.00000000
   7      -0.00000000
   8       0.00000000
   9      -0.00000000
  10      -0.00000000
  11      -0.00000000
  12       0.02468234
  13      -0.01081048
  14       0.00000000
  15      -0.08252332
  16       0.03614393
  17       0.00000000
  18       0.30369866
  19      -0.13301530
  20      -0.00000000
  21       0.32202893
  22      -0.14104367
  23      -0.00000000
  24      -0.00000000
  25      -0.00000000
  26       0.00271290
  27      -0.00118821
  28      -0.00000000
  29      -0.00000000
  30      -0.00000000
  31      -0.00000000
  32       0.02215680
  33      -0.00970434
  34       0.00000000
  35       0.00000000
  36       0.00000000
  37       0.00000000
  38      -0.00000000
  39       0.00000000
  40      -0.00000000
  41       0.00000000
  42      -0.00000000
  43       0.00000000
  44      -0.00000000
  45       0.00000000
  46       0.02468234
  47      -0.01081048
  48      -0.00000000
  49      -0.08252332
  50       0.03614393
  51       0.00000000
  52       0.30369866
  53      -0.13301530
  54       0.00000000
  55       0.32202893
  56      -0.14104367
  57      -0.00000000
  58       0.00000000
  59       0.00000000
  60      -0.00271290
  61       0.00118821
  62       0.00000000
  63       0.00000000
  64       0.00000000
  65       0.00000000
  66      -0.02215680
  67       0.00970434
  68       0.00000000
Ene=     5.19732E-03
Spin= Alpha
Occup=   0.0000000000
   1       0.00000000
   2      -0.00000000
   3       0.00000000
   4      -0.00000000
   5      -0.00000000
   6      -0.00000000
   7       0.00000000
   8      -0.00000000
   9       0.00000000
  10      -0.00000000
  11      -0.00000000
  12      -0.01081048
  13      -0.02468234
  14       0.00000000
  15       0.03614393
  16       0.08252332
  17       0.00000000
  18      -0.13301530
  19      -0.30369866
  20       0.00000000
  21      -0.14104367
  22      -0.32202893
  23      -0.00000000
  24       0.00000000
  25       0.00000000
  26      -0.00118821
  27      -0.00271290
  28      -0.00000000
  29       0.00000000
  30       0.00000000
  31       0.00000000
  32      -0.00970434
  33      -0.02215680
  34       0.00000000
  35       0.00000000
  36      -0.00000000
  37      -0.00000000
  38       0.00000000
  39      -0.00000000
  40       0.00000000
  41      -0.00000000
  42       0.00000000
  43      -0.00000000
  44       0.00000000
  45       0.00000000
  46      -0.01081048
  47      -0.02468234
  48      -0.00000000
  49       0.03614393
  50       0.08252332
  51       0.00000000
  52      -0.13301530
  53      -0.30369866
  54       0.00000000
  55      -0.14104367
  56      -0.32202893
  57      -0.00000000
  58      -0.00000000
  59      -0.00000000
  60       0.00118821
  61       0.00271290
  62       0.00000000
  63      -0.00000000
  64      -0.00000000
  65      -0.00000000
  66       0.00970434
  67       0.02215680
  68       0.00000000
Ene=     7.71634E-03
Spin= Alpha
Occup=   0.0000000000
   1       0.00000000
   2      -0.00000000
   3      -0.00000000
   4       0.00000000
   5      -0.00000000
   6      -0.00000000
   7       0.00000000
   8      -0.00000000
   9      -0.00000000
  10       0.00000000
  11       0.00000000
  12       0.87112781
  13       1.07162886
  14      -0.00000000
  15      -0.15995859
  16      -0.19677508
  17      -0.00000000
  18       0.13022520
  19       0.16019818
  20       0.00000000
  21       0.45302724
  22       0.55729718
  23       0.00000000
  24      -0.00000000
  25      -0.00000000
  26       0.14013221
  27       0.17238541
  28       0.00000000
  29      -0.00000000
  30      -0.00000000
  31      -0.00000000
  32      -0.02896239
  33      -0.03562845
  34      -0.00000000
  35      -0.00000000
  36       0.00000000
  37       0.00000000
  38       0.00000000
  39      -0.00000000
  40       0.00000000
  41      -0.00000000
  42       0.00000000
  43      -0.00000000
  44      -0.00000000
  45       0.00000000
  46      -0.87112781
  47      -1.07162886
  48      -0.00000000
  49       0.15995859
  50       0.19677508
  51      -0.00000000
  52      -0.13022520
  53      -0.16019818
  54      -0.00000000
  55      -0.45302724
  56      -0.55729718
  57      -0.00000000
  58       0.00000000
  59       0.00000000
  60       0.14013221
  61       0.17238541
  62      -0.00000000
  63       0.00000000
  64       0.00000000
  65       0.00000000
  66      -0.02896239
  67      -0.03562845
  68       0.00000000
Ene=     7.71634E-03
Spin= Alpha
Occup=   0.0000000000
   1       0.00000000
   2       0.00000000
   3      -0.00000000
   4      -0.00000000
   5       0.00000000
   6      -0.00000000
   7       0.00000000
   8      -0.00000000
   9       0.00000000
  10      -0.00000000
  11       0.00000000
  12       1.07162886
  13      -0.87112780
  14       0.00000000
  15      -0.19677508
  16       0.15995859
  17      -0.00000000
  18       0.16019818
  19      -0.13022520
  20      -0.00000000
  21       0.55729718
  22      -0.45302724
  23       0.00000000
  24       0.00000000
  25       0.00000000
  26       0.17238541
  27      -0.14013221
  28       0.00000000
  29       0.00000000
  30       0.00000000
  31       0.00000000
  32      -0.03562845
  33       0.02896239
  34      -0.00000000
  35      -0.00000000
  36      -0.00000000
  37       0.00000000
  38      -0.00000000
  39       0.00000000
  40      -0.00000000
  41       0.00000000
  42      -0.00000000
  43      -0.00000000
  44      -0.00000000
  45      -0.00000000
  46      -1.07162886
  47       0.87112780
  48       0.00000000
  49       0.19677508
  50      -0.15995859
  51      -0.00000000
  52      -0.16019818
  53       0.13022520
  54       0.00000000
  55      -0.55729718
  56       0.45302724
  57       0.00000000
  58      -0.00000000
  59      -0.00000000
  60       0.17238541
  61      -0.14013221
  62      -0.00000000
  63      -0.00000000
  64      -0.00000000
  65      -0.00000000
  66      -0.03562845
  67       0.02896239
  68       0.00000000
Ene=     8.43633E-03
Spin= Alpha
Occup=   0.0000000000
   1       0.02203098
   2      -0.00874134
   3      -3.43043120
   4      -0.12878552
   5       0.54056279
   6       0.02174154
   7       0.08069898
   8      -0.05364964
   9      -0.00178064
  10      -0.00022613
  11      -0.12338926
  12       0.00000000
  13       0.00000000
  14       0.03127796
  15      -0.00000000
  16      -0.00000000
  17      -1.25324612
  18       0.00000000
  19       0.00000000
  20      -0.18613848
  21      -0.00000000
  22      -0.00000000
  23      -0.09812278
  24      -0.18811771
  25      -0.18811771
  26       0.00000000
  27       0.00000000
  28       0.00000000
  29      -0.26215660
  30      -0.10582229
  31      -0.10582229
  32      -0.00000000
  33       0.00000000
  34      -0.00000000
  35      -0.02203098
  36       0.00874134
  37       3.43043120
  38       0.12878552
  39      -0.54056279
  40      -0.02174154
  41      -0.08069898
  42       0.05364964
  43       0.00178064
  44       0.00022613
  45      -0.12338926
  46      -0.00000000
  47      -0.00000000
  48       0.03127796
  49       0.00000000
  50       0.00000000
  51      -1.25324612
  52      -0.00000000
  53      -0.00000000
  54      -0.18613848
  55       0.00000000
  56       0.00000000
  57       0.09812278
  58       0.18811771
  59       0.18811771
  60       0.00000000
  61       0.00000000
  62       0.00000000
  63       0.26215660
  64       0.10582229
  65       0.10582229
  66      -0.00000000
  67      -0.00000000
  68      -0.00000000
Ene=     8.86184E-03
Spin= Alpha
Occup=   0.0000000000
   1       0.23724100
   2      -0.19976297
   3      -0.23768286
   4       0.31343064
   5      -0.18446939
   6       0.03997741
   7      -0.02159749
   8       0.00966245
   9      -0.00064924
  10       0.00017891
  11      -1.01808450
  12       0.00000000
  13       0.00000000
  14       0.29714921
  15      -0.00000000
  16      -0.00000000
  17      -0.27025123
  18       0.00000000
  19       0.00000000
  20       0.68635945
  21      -0.00000000
  22      -0.00000000
  23      -0.27873286
  24       0.01431440
  25       0.01431440
  26       0.00000000
  27       0.00000000
  28       0.00000000
  29       0.16061278
  30       0.04692206
  31       0.04692206
  32      -0.00000000
  33      -0.00000000
  34      -0.00000000
  35       0.23724100
  36      -0.19976297
  37      -0.23768286
  38       0.31343064
  39      -0.18446939
  40       0.03997741
  41      -0.02159749
  42       0.00966245
  43      -0.00064924
  44       0.00017891
  45       1.01808450
  46      -0.00000000
  47      -0.00000000
  48      -0.29714921
  49       0.00000000
  50       0.00000000
  51       0.27025123
  52      -0.00000000
  53      -0.00000000
  54      -0.68635945
  55       0.00000000
  56       0.00000000
  57      -0.27873286
  58       0.01431440
  59       0.01431440
  60       0.00000000
  61       0.00000000
  62       0.00000000
  63       0.16061278
  64       0.04692206
  65       0.04692206
  66      -0.00000000
  67      -0.00000000
  68      -0.00000000
Ene=     1.22395E-02
Spin= Alpha
Occup=   0.0000000000
   1      -0.00000000
   2       0.00000000
   3       0.00000000
   4      -0.00000000
   5       0.00000000
   6      -0.00000000
   7       0.00000000
   8      -0.00000000
   9      -0.00000000
  10      -0.00000000
  11       0.00000000
  12       0.02120608
  13      -0.05882164
  14      -0.00000000
  15      -0.07299393
  16       0.20247127
  17       0.00000000
  18       0.32053546
  19      -0.88910431
  20      -0.00000000
  21      -0.31520483
  22       0.87431814
  23       0.00000000
  24      -0.00000000
  25      -0.00000000
  26       0.00213948
  27      -0.00593451
  28       0.00000000
  29      -0.00000000
  30      -0.00000000
  31      -0.00000000
  32       0.01883802
  33      -0.05225308
  34      -0.00000000
  35      -0.00000000
  36       0.00000000
  37       0.00000000
  38      -0.00000000
  39       0.00000000
  40      -0.00000000
  41       0.00000000
  42      -0.00000000
  43      -0.00000000
  44      -0.00000000
  45      -0.00000000
  46       0.02120608
  47      -0.05882164
  48       0.00000000
  49      -0.07299393
  50       0.20247127
  51      -0.00000000
  52       0.32053546
  53      -0.88910431
  54       0.00000000
  55      -0.31520483
  56       0.87431814
  57       0.00000000
  58      -0.00000000
  59      -0.00000000
  60      -0.00213948
  61       0.00593451
  62      -0.00000000
  63      -0.00000000
  64      -0.00000000
  65      -0.00000000
  66      -0.01883802
  67       0.05225308
  68       0.00000000
Ene=     1.22395E-02
Spin= Alpha
Occup=   0.0000000000
   1       0.00000000
   2       0.00000000
   3      -0.00000000
   4      -0.00000000
   5       0.00000000
   6      -0.00000000
   7       0.00000000
   8      -0.00000000
   9      -0.00000000
  10       0.00000000
  11      -0.00000000
  12       0.05882164
  13       0.02120608
  14      -0.00000000
  15      -0.20247127
  16      -0.07299393
  17       0.00000000
  18       0.88910431
  19       0.32053546
  20      -0.00000000
  21      -0.87431814
  22      -0.31520483
  23      -0.00000000
  24      -0.00000000
  25      -0.00000000
  26       0.00593451
  27       0.00213948
  28      -0.00000000
  29      -0.00000000
  30      -0.00000000
  31      -0.00000000
  32       0.05225308
  33       0.01883802
  34       0.00000000
  35       0.00000000
  36       0.00000000
  37       0.00000000
  38      -0.00000000
  39       0.00000000
  40      -0.00000000
  41       0.00000000
  42      -0.00000000
  43       0.00000000
  44      -0.00000000
  45       0.00000000
  46       0.05882164
  47       0.02120608
  48       0.00000000
  49      -0.20247127
  50      -0.07299393
  51      -0.00000000
  52       0.88910431
  53       0.32053546
  54      -0.00000000
  55      -0.87431814
  56      -0.31520483
  57      -0.00000000
  58       0.00000000
  59       0.00000000
  60      -0.00593451
  61      -0.00213948
  62       0.00000000
  63      -0.00000000
  64      -0.00000000
  65      -0.00000000
  66      -0.05225308
  67      -0.01883802
  68      -0.00000000
Ene=     1.22974E-02
Spin= Alpha
Occup=   0.0000000000
   1       0.39963914
   2      -0.37434671
   3      -0.29040465
   4       1.69374280
   5      -1.06489183
   6       0.02496911
   7      -0.12406402
   8       0.07645931
   9       0.00135477
  10       0.00049377
  11      -2.00361163
  12       0.00000000
  13       0.00000000
  14       0.38414291
  15      -0.00000000
  16      -0.00000000
  17      -0.53288075
  18       0.00000000
  19      -0.00000000
  20       0.05106816
  21      -0.00000000
  22       0.00000000
  23      -0.53532586
  24       0.03676147
  25       0.03676147
  26       0.00000000
  27       0.00000000
  28       0.00000000
  29       0.24563032
  30       0.13098835
  31       0.13098835
  32      -0.00000000
  33      -0.00000000
  34       0.00000000
  35       0.39963914
  36      -0.37434671
  37      -0.29040465
  38       1.69374280
  39      -1.06489183
  40       0.02496911
  41      -0.12406402
  42       0.07645931
  43       0.00135477
  44       0.00049377
  45       2.00361163
  46      -0.00000000
  47      -0.00000000
  48      -0.38414291
  49      -0.00000000
  50       0.00000000
  51       0.53288075
  52       0.00000000
  53      -0.00000000
  54      -0.05106816
  55      -0.00000000
  56       0.00000000
  57      -0.53532586
  58       0.03676147
  59       0.03676147
  60       0.00000000
  61       0.00000000
  62      -0.00000000
  63       0.24563032
  64       0.13098835
  65       0.13098835
  66      -0.00000000
  67      -0.00000000
  68       0.00000000
Ene=     1.26464E-02
Spin= Alpha
Occup=   0.0000000000
   1      -0.01741074
   2      -0.00249591
   3       2.30333486
   4      -0.11886867
   5       0.01836055
   6       0.07705482
   7       0.01133762
   8      -0.01496176
   9      -0.00202778
  10       0.00015372
  11       0.09664843
  12      -0.00000000
  13      -0.00000000
  14       0.00040471
  15       0.00000000
  16       0.00000000
  17       0.77640625
  18      -0.00000000
  19      -0.00000000
  20       1.23085583
  21       0.00000000
  22       0.00000000
  23       0.08896913
  24       0.13836310
  25       0.13836310
  26      -0.00000000
  27      -0.00000000
  28       0.00000000
  29       0.20981144
  30       0.11704502
  31       0.11704502
  32       0.00000000
  33       0.00000000
  34      -0.00000000
  35       0.01741074
  36       0.00249591
  37      -2.30333486
  38       0.11886867
  39      -0.01836055
  40      -0.07705482
  41      -0.01133762
  42       0.01496176
  43       0.00202778
  44      -0.00015372
  45       0.09664843
  46       0.00000000
  47       0.00000000
  48       0.00040471
  49      -0.00000000
  50      -0.00000000
  51       0.77640625
  52       0.00000000
  53       0.00000000
  54       1.23085583
  55      -0.00000000
  56      -0.00000000
  57      -0.08896913
  58      -0.13836310
  59      -0.13836310
  60      -0.00000000
  61      -0.00000000
  62       0.00000000
  63      -0.20981144
  64      -0.11704502
  65      -0.11704502
  66       0.00000000
  67       0.00000000
  68      -0.00000000
Ene=     1.75483E-02
Spin= Alpha
Occup=   0.0000000000
   1       0.01031174
   2      -0.03141135
   3      -5.17405093
   4       3.06056169
   5      -1.38007067
   6       0.10982472
   7      -0.11977612
   8       0.06560039
   9      -0.00050978
  10       0.00066336
  11      -0.06032934
  12       0.00000000
  13       0.00000000
  14       0.05110075
  15      -0.00000000
  16      -0.00000000
  17      -1.88442662
  18       0.00000000
  19       0.00000000
  20       0.50604904
  21      -0.00000000
  22      -0.00000000
  23      -0.00969043
  24      -0.11762241
  25      -0.11762241
  26       0.00000000
  27       0.00000000
  28      -0.00000000
  29      -0.14607717
  30       0.02874403
  31       0.02874403
  32      -0.00000000
  33      -0.00000000
  34       0.00000000
  35      -0.01031174
  36       0.03141135
  37       5.17405093
  38      -3.06056169
  39       1.38007067
  40      -0.10982472
  41       0.11977612
  42      -0.06560039
  43       0.00050978
  44      -0.00066336
  45      -0.06032934
  46      -0.00000000
  47      -0.00000000
  48       0.05110075
  49       0.00000000
  50       0.00000000
  51      -1.88442662
  52      -0.00000000
  53      -0.00000000
  54       0.50604904
  55       0.00000000
  56       0.00000000
  57       0.00969043
  58       0.11762241
  59       0.11762241
  60       0.00000000
  61       0.00000000
  62      -0.00000000
  63       0.14607717
  64      -0.02874403
  65      -0.02874403
  66      -0.00000000
  67      -0.00000000
  68       0.00000000
Ene=     1.82111E-02
Spin= Alpha
Occup=   0.0000000000
   1       0.00000000
   2       0.00000000
   3       0.00000000
   4      -0.00000000
   5       0.00000000
   6      -0.00000000
   7       0.00000000
   8      -0.00000000
   9       0.00000000
  10      -0.00000000
  11       0.00000000
  12      10.60054386
  13      -1.19484190
  14       0.00000000
  15      -2.28719854
  16       0.25780193
  17       0.00000000
  18       1.86816726
  19      -0.21057075
  20      -0.00000000
  21      -0.88850512
  22       0.10014799
  23       0.00000000
  24       0.00000000
  25       0.00000000
  26       1.71291349
  27      -0.19307130
  28       0.00000000
  29       0.00000000
  30       0.00000000
  31       0.00000000
  32      -0.46484115
  33       0.05239464
  34      -0.00000000
  35      -0.00000000
  36      -0.00000000
  37      -0.00000000
  38       0.00000000
  39      -0.00000000
  40       0.00000000
  41      -0.00000000
  42       0.00000000
  43      -0.00000000
  44       0.00000000
  45       0.00000000
  46     -10.60054386
  47       1.19484190
  48       0.00000000
  49       2.28719854
  50      -0.25780193
  51       0.00000000
  52      -1.86816726
  53       0.21057075
  54      -0.00000000
  55       0.88850512
  56      -0.10014799
  57      -0.00000000
  58      -0.00000000
  59      -0.00000000
  60       1.71291349
  61      -0.19307130
  62      -0.00000000
  63      -0.00000000
  64       0.00000000
  65      -0.00000000
  66      -0.46484115
  67       0.05239464
  68       0.00000000
Ene=     1.82111E-02
Spin= Alpha
Occup=   0.0000000000
   1      -0.00000000
   2       0.00000000
   3      -0.00000000
   4       0.00000000
   5      -0.00000000
   6       0.00000000
   7      -0.00000000
   8       0.00000000
   9       0.00000000
  10       0.00000000
  11      -0.00000000
  12      -1.19484190
  13     -10.60054386
  14       0.00000000
  15       0.25780193
  16       2.28719854
  17      -0.00000000
  18      -0.21057075
  19      -1.86816726
  20       0.00000000
  21       0.10014799
  22       0.88850512
  23      -0.00000000
  24       0.00000000
  25       0.00000000
  26      -0.19307130
  27      -1.71291349
  28      -0.00000000
  29       0.00000000
  30       0.00000000
  31       0.00000000
  32       0.05239464
  33       0.46484115
  34      -0.00000000
  35       0.00000000
  36      -0.00000000
  37       0.00000000
  38      -0.00000000
  39       0.00000000
  40      -0.00000000
  41       0.00000000
  42      -0.00000000
  43       0.00000000
  44      -0.00000000
  45       0.00000000
  46       1.19484190
  47      10.60054386
  48       0.00000000
  49      -0.25780193
  50      -2.28719854
  51      -0.00000000
  52       0.21057075
  53       1.86816726
  54       0.00000000
  55      -0.10014799
  56      -0.88850512
  57      -0.00000000
  58      -0.00000000
  59      -0.00000000
  60      -0.19307130
  61      -1.71291349
  62       0.00000000
  63      -0.00000000
  64      -0.00000000
  65       0.00000000
  66       0.05239464
  67       0.46484115
  68       0.00000000
Ene=     2.18493E-02
Spin= Alpha
Occup=   0.0000000000
   1       1.80386368
   2      -1.74503959
   3       1.77968365
   4      -1.19864188
   5       0.46392755
   6       0.02598907
   7       0.03720016
   8      -0.02627486
   9      -0.00125111
  10      -0.00006119
  11      -6.76441421
  12       0.00000000
  13      -0.00000000
  14       1.85537334
  15      -0.00000000
  16       0.00000000
  17      -1.32946348
  18       0.00000000
  19       0.00000000
  20       0.63378799
  21       0.00000000
  22      -0.00000000
  23      -1.89314515
  24       0.05773932
  25       0.05773932
  26       0.00000000
  27      -0.00000000
  28       0.00000000
  29       1.02077885
  30       0.30003832
  31       0.30003832
  32      -0.00000000
  33       0.00000000
  34       0.00000000
  35       1.80386368
  36      -1.74503959
  37       1.77968365
  38      -1.19864188
  39       0.46392755
  40       0.02598907
  41       0.03720016
  42      -0.02627486
  43      -0.00125111
  44      -0.00006119
  45       6.76441421
  46      -0.00000000
  47       0.00000000
  48      -1.85537334
  49       0.00000000
  50      -0.00000000
  51       1.32946348
  52      -0.00000000
  53      -0.00000000
  54      -0.63378799
  55      -0.00000000
  56       0.00000000
  57      -1.89314515
  58       0.05773932
  59       0.05773932
  60       0.00000000
  61      -0.00000000
  62      -0.00000000
  63       1.02077885
  64       0.30003832
  65       0.30003832
  66      -0.00000000
  67       0.00000000
  68       0.00000000
Ene=     2.48451E-02
Spin= Alpha
Occup=   0.0000000000
   1      -0.07171621
   2      -0.31940459
   3      -4.60331840
   4       0.44618976
   5      -0.15021132
   6       0.05718695
   7      -0.00841081
   8      -0.00006790
   9      -0.00110571
  10       0.00015497
  11       0.37745341
  12       0.00000000
  13       0.00000000
  14       0.78575488
  15      -0.00000000
  16      -0.00000000
  17      -4.59435495
  18       0.00000000
  19       0.00000000
  20       1.05897762
  21       0.00000000
  22       0.00000000
  23       0.63930087
  24       0.30326390
  25       0.30326390
  26       0.00000000
  27       0.00000000
  28      -0.00000000
  29       1.06452697
  30       1.38910910
  31       1.38910910
  32      -0.00000000
  33      -0.00000000
  34       0.00000000
  35       0.07171621
  36       0.31940459
  37       4.60331840
  38      -0.44618976
  39       0.15021132
  40      -0.05718695
  41       0.00841081
  42       0.00006790
  43       0.00110571
  44      -0.00015497
  45       0.37745341
  46      -0.00000000
  47      -0.00000000
  48       0.78575488
  49       0.00000000
  50       0.00000000
  51      -4.59435495
  52      -0.00000000
  53      -0.00000000
  54       1.05897762
  55       0.00000000
  56      -0.00000000
  57      -0.63930087
  58      -0.30326390
  59      -0.30326390
  60       0.00000000
  61       0.00000000
  62       0.00000000
  63      -1.06452697
  64      -1.38910910
  65      -1.38910910
  66      -0.00000000
  67      -0.00000000
  68      -0.00000000
Ene=     2.87789E-02
Spin= Alpha
Occup=   0.0000000000
   1      -5.04512366
   2      -2.11019300
   3       4.76151092
   4      -2.12154335
   5       0.43030340
   6       0.13461561
   7       0.01857518
   8      -0.02542652
   9      -0.00359810
  10       0.00027496
  11       4.81755385
  12      -0.00000000