[Molden Format]
[Title]
 Molden2AIM, Version 3.1.0 (02/25/2015)           Time: Thu Oct 17 19:53:34 2024

[Atoms] AU
E+       1       4     0.00000000     0.00000000     0.00000000
E+       2       4    21.40000000     0.00000000     0.00000000
[GTO]
    1 0
 S   1 1.0
    0.1000000000D-03      0.1000000000D+01
 S   1 1.0
    0.3000000000D-03      0.1000000000D+01
 S   1 1.0
    0.9000000000D-03      0.1000000000D+01
 S   1 1.0
    0.2700000000D-02      0.1000000000D+01
 S   1 1.0
    0.8100000000D-02      0.1000000000D+01
 S   1 1.0
    0.2430000000D-01      0.1000000000D+01
 S   1 1.0
    0.7290000000D-01      0.1000000000D+01
 S   1 1.0
    0.2187000000D+00      0.1000000000D+01
 S   1 1.0
    0.6561000000D+00      0.1000000000D+01
 S   1 1.0
    0.1968300000D+01      0.1000000000D+01
 P   1 1.0
    0.1000000000D-03      0.1000000000D+01
 P   1 1.0
    0.3000000000D-03      0.1000000000D+01
 P   1 1.0
    0.9000000000D-03      0.1000000000D+01
 P   1 1.0
    0.2700000000D-02      0.1000000000D+01
 D   1 1.0
    0.1000000000D-03      0.1000000000D+01
 D   1 1.0
    0.3000000000D-03      0.1000000000D+01

    2 0
 S   1 1.0
    0.1000000000D-03      0.1000000000D+01
 S   1 1.0
    0.3000000000D-03      0.1000000000D+01
 S   1 1.0
    0.9000000000D-03      0.1000000000D+01
 S   1 1.0
    0.2700000000D-02      0.1000000000D+01
 S   1 1.0
    0.8100000000D-02      0.1000000000D+01
 S   1 1.0
    0.2430000000D-01      0.1000000000D+01
 S   1 1.0
    0.7290000000D-01      0.1000000000D+01
 S   1 1.0
    0.2187000000D+00      0.1000000000D+01
 S   1 1.0
    0.6561000000D+00      0.1000000000D+01
 S   1 1.0
    0.1968300000D+01      0.1000000000D+01
 P   1 1.0
    0.1000000000D-03      0.1000000000D+01
 P   1 1.0
    0.3000000000D-03      0.1000000000D+01
 P   1 1.0
    0.9000000000D-03      0.1000000000D+01
 P   1 1.0
    0.2700000000D-02      0.1000000000D+01
 D   1 1.0
    0.1000000000D-03      0.1000000000D+01
 D   1 1.0
    0.3000000000D-03      0.1000000000D+01


[MO]
 Ene=         -0.00398924
 Spin= Alpha
 Occup=        1.00000000
    1       -0.0472803800
    2        0.0517453100
    3       -0.0389218400
    4       -0.2308323600
    5       -0.2151250600
    6       -0.1880064000
    7       -0.1116251400
    8        0.0914788000
    9        0.0064042900
   10       -0.0001118500
   11        0.2314381000
   12       -0.0000000000
   13        0.0000000000
   14       -0.1088252100
   15        0.0000000000
   16       -0.0000000000
   17        0.0068563100
   18       -0.0000000000
   19        0.0000000000
   20       -0.0195014000
   21        0.0000000000
   22       -0.0000000000
   23        0.0433111800
   24       -0.0003248500
   25       -0.0003248500
   26       -0.0000000000
   27        0.0000000000
   28        0.0000000000
   29       -0.0373481600
   30       -0.0028967300
   31       -0.0028967300
   32        0.0000000000
   33       -0.0000000000
   34        0.0000000000
   35       -0.0472803800
   36        0.0517453100
   37       -0.0389218400
   38       -0.2308323600
   39       -0.2151250600
   40       -0.1880064000
   41       -0.1116251400
   42        0.0914788000
   43        0.0064042900
   44       -0.0001118500
   45       -0.2314381000
   46        0.0000000000
   47       -0.0000000000
   48        0.1088252100
   49       -0.0000000000
   50        0.0000000000
   51       -0.0068563100
   52        0.0000000000
   53       -0.0000000000
   54        0.0195014000
   55       -0.0000000000
   56        0.0000000000
   57        0.0433111800
   58       -0.0003248500
   59       -0.0003248500
   60       -0.0000000000
   61        0.0000000000
   62        0.0000000000
   63       -0.0373481600
   64       -0.0028967300
   65       -0.0028967300
   66        0.0000000000
   67       -0.0000000000
   68       -0.0000000000
 Ene=         -0.00113369
 Spin= Alpha
 Occup=        0.00000000
    1       -0.0007517900
    2        0.0012420600
    3        0.6143351800
    4        0.3080793500
    5        0.2589526700
    6        0.2108763500
    7        0.1178332400
    8       -0.0976113300
    9       -0.0070723300
   10        0.0001497500
   11        0.0064015200
   12       -0.0000000000
   13        0.0000000000
   14       -0.0039779400
   15        0.0000000000
   16       -0.0000000000
   17        0.1776286200
   18       -0.0000000000
   19        0.0000000000
   20       -0.0730965000
   21        0.0000000000
   22       -0.0000000000
   23        0.0059293200
   24        0.0160642100
   25        0.0160642100
   26       -0.0000000000
   27        0.0000000000
   28        0.0000000000
   29        0.0197714200
   30        0.0036003900
   31        0.0036003900
   32        0.0000000000
   33       -0.0000000000
   34       -0.0000000000
   35        0.0007517900
   36       -0.0012420600
   37       -0.6143351800
   38       -0.3080793500
   39       -0.2589526700
   40       -0.2108763500
   41       -0.1178332400
   42        0.0976113300
   43        0.0070723300
   44       -0.0001497500
   45        0.0064015200
   46        0.0000000000
   47       -0.0000000000
   48       -0.0039779400
   49       -0.0000000000
   50        0.0000000000
   51        0.1776286200
   52        0.0000000000
   53       -0.0000000000
   54       -0.0730965000
   55       -0.0000000000
   56        0.0000000000
   57       -0.0059293200
   58       -0.0160642100
   59       -0.0160642100
   60       -0.0000000000
   61        0.0000000000
   62       -0.0000000000
   63       -0.0197714200
   64       -0.0036003900
   65       -0.0036003900
   66        0.0000000000
   67       -0.0000000000
   68        0.0000000000
 Ene=          0.00345983
 Spin= Alpha
 Occup=        0.00000000
    1        0.9174875300
    2       -0.1587941900
    3       -1.1530442900
    4        0.8408782700
    5       -0.0582083600
    6        0.1183461500
    7        0.0252663900
    8       -0.0284725200
    9       -0.0033583700
   10        0.0002270000
   11       -3.6506596600
   12       -0.0000000000
   13        0.0000000000
   14        1.2395272500
   15        0.0000000000
   16       -0.0000000000
   17       -0.4550601600
   18       -0.0000000000
   19        0.0000000000
   20        0.1001938400
   21        0.0000000000
   22       -0.0000000000
   23       -0.7008337700
   24       -0.0190353300
   25       -0.0190353300
   26       -0.0000000000
   27        0.0000000000
   28       -0.0000000000
   29        0.2860255600
   30       -0.0784356500
   31       -0.0784356500
   32        0.0000000000
   33       -0.0000000000
   34        0.0000000000
   35        0.9174875300
   36       -0.1587941900
   37       -1.1530442900
   38        0.8408782700
   39       -0.0582083600
   40        0.1183461500
   41        0.0252663900
   42       -0.0284725200
   43       -0.0033583700
   44        0.0002270000
   45        3.6506596600
   46        0.0000000000
   47       -0.0000000000
   48       -1.2395272500
   49       -0.0000000000
   50        0.0000000000
   51        0.4550601600
   52        0.0000000000
   53       -0.0000000000
   54       -0.1001938400
   55       -0.0000000000
   56        0.0000000000
   57       -0.7008337700
   58       -0.0190353300
   59       -0.0190353300
   60       -0.0000000000
   61        0.0000000000
   62       -0.0000000000
   63        0.2860255600
   64       -0.0784356500
   65       -0.0784356500
   66        0.0000000000
   67       -0.0000000000
   68        0.0000000000
 Ene=          0.00407944
 Spin= Alpha
 Occup=        0.00000000
    1       -0.0000000000
    2       -0.0000000000
    3       -0.0000000000
    4        0.0000000000
    5        0.0000000000
    6        0.0000000000
    7        0.0000000000
    8       -0.0000000000
    9       -0.0000000000
   10        0.0000000000
   11        0.0000000000
   12        0.0289507500
   13        0.0067600300
   14        0.0000000000
   15       -0.1133646800
   16       -0.0264707800
   17       -0.0000000000
   18        0.4770337400
   19        0.1113879100
   20        0.0000000000
   21        0.1368992000
   22        0.0319661200
   23       -0.0000000000
   24       -0.0000000000
   25       -0.0000000000
   26        0.0498990000
   27        0.0116514700
   28       -0.0000000000
   29        0.0000000000
   30       -0.0000000000
   31       -0.0000000000
   32       -0.0102709600
   33       -0.0023982800
   34        0.0000000000
   35       -0.0000000000
   36       -0.0000000000
   37        0.0000000000
   38       -0.0000000000
   39       -0.0000000000
   40       -0.0000000000
   41       -0.0000000000
   42       -0.0000000000
   43        0.0000000000
   44       -0.0000000000
   45       -0.0000000000
   46        0.0289507500
   47        0.0067600300
   48       -0.0000000000
   49       -0.1133646800
   50       -0.0264707800
   51       -0.0000000000
   52        0.4770337400
   53        0.1113879100
   54       -0.0000000000
   55        0.1368992000
   56        0.0319661200
   57        0.0000000000
   58        0.0000000000
   59        0.0000000000
   60       -0.0498990000
   61       -0.0116514700
   62        0.0000000000
   63        0.0000000000
   64        0.0000000000
   65        0.0000000000
   66        0.0102709600
   67        0.0023982800
   68       -0.0000000000
 Ene=          0.00407944
 Spin= Alpha
 Occup=        0.00000000
    1       -0.0000000000
    2        0.0000000000
    3        0.0000000000
    4       -0.0000000000
    5       -0.0000000000
    6       -0.0000000000
    7       -0.0000000000
    8        0.0000000000
    9       -0.0000000000
   10        0.0000000000
   11        0.0000000000
   12       -0.0067600300
   13        0.0289507500
   14       -0.0000000000
   15        0.0264707800
   16       -0.1133646800
   17        0.0000000000
   18       -0.1113879100
   19        0.4770337400
   20       -0.0000000000
   21       -0.0319661200
   22        0.1368992000
   23        0.0000000000
   24        0.0000000000
   25        0.0000000000
   26       -0.0116514700
   27        0.0498990000
   28       -0.0000000000
   29       -0.0000000000
   30       -0.0000000000
   31       -0.0000000000
   32        0.0023982800
   33       -0.0102709600
   34        0.0000000000
   35       -0.0000000000
   36        0.0000000000
   37       -0.0000000000
   38       -0.0000000000
   39        0.0000000000
   40       -0.0000000000
   41       -0.0000000000
   42        0.0000000000
   43       -0.0000000000
   44        0.0000000000
   45       -0.0000000000
   46       -0.0067600300
   47        0.0289507500
   48        0.0000000000
   49        0.0264707800
   50       -0.1133646800
   51       -0.0000000000
   52       -0.1113879100
   53        0.4770337400
   54        0.0000000000
   55       -0.0319661200
   56        0.1368992000
   57        0.0000000000
   58       -0.0000000000
   59       -0.0000000000
   60        0.0116514700
   61       -0.0498990000
   62        0.0000000000
   63       -0.0000000000
   64       -0.0000000000
   65       -0.0000000000
   66       -0.0023982800
   67        0.0102709600
   68       -0.0000000000
 Ene=          0.00583717
 Spin= Alpha
 Occup=        0.00000000
    1        0.0146253300
    2        0.0036064000
    3       -6.8955281100
    4        0.5214026800
    5        0.3188214300
    6        0.0714441000
    7        0.0739467000
    8       -0.0544499600
    9       -0.0028410100
   10       -0.0000799000
   11       -0.1229055300
   12        0.0000000000
   13        0.0000000000
   14       -0.0274073600
   15       -0.0000000000
   16        0.0000000000
   17       -1.6984176200
   18        0.0000000000
   19       -0.0000000000
   20        0.2413360400
   21        0.0000000000
   22       -0.0000000000
   23       -0.1711661200
   24       -0.2575631700
   25       -0.2575631700
   26        0.0000000000
   27        0.0000000000
   28        0.0000000000
   29       -0.4125907100
   30       -0.2628334600
   31       -0.2628334600
   32       -0.0000000000
   33        0.0000000000
   34        0.0000000000
   35       -0.0146253300
   36       -0.0036064000
   37        6.8955281100
   38       -0.5214026800
   39       -0.3188214300
   40       -0.0714441000
   41       -0.0739467000
   42        0.0544499600
   43        0.0028410100
   44        0.0000799000
   45       -0.1229055300
   46       -0.0000000000
   47       -0.0000000000
   48       -0.0274073600
   49        0.0000000000
   50       -0.0000000000
   51       -1.6984176200
   52       -0.0000000000
   53        0.0000000000
   54        0.2413360400
   55       -0.0000000000
   56        0.0000000000
   57        0.1711661200
   58        0.2575631700
   59        0.2575631700
   60        0.0000000000
   61        0.0000000000
   62        0.0000000000
   63        0.4125907100
   64        0.2628334600
   65        0.2628334600
   66       -0.0000000000
   67        0.0000000000
   68       -0.0000000000
 Ene=          0.00676915
 Spin= Alpha
 Occup=        0.00000000
    1        1.4392985600
    2       -0.9181956300
    3       -0.0421610300
    4        0.8046043500
    5       -0.2710366900
    6        0.0415532000
    7       -0.0261880300
    8        0.0127874100
    9       -0.0005282500
   10        0.0001893700
   11       -7.4060976700
   12       -0.0000000000
   13        0.0000000000
   14        2.1012779900
   15        0.0000000000
   16       -0.0000000000
   17       -0.6298297900
   18       -0.0000000000
   19        0.0000000000
   20       -0.5345562300
   21       -0.0000000000
   22        0.0000000000
   23       -1.3643070300
   24        0.0214271000
   25        0.0214271000
   26       -0.0000000000
   27        0.0000000000
   28       -0.0000000000
   29        0.7098825300
   30        0.0900152300
   31        0.0900152300
   32        0.0000000000
   33       -0.0000000000
   34        0.0000000000
   35        1.4392985600
   36       -0.9181956300
   37       -0.0421610300
   38        0.8046043500
   39       -0.2710366900
   40        0.0415532000
   41       -0.0261880300
   42        0.0127874100
   43       -0.0005282500
   44        0.0001893700
   45        7.4060976700
   46        0.0000000000
   47       -0.0000000000
   48       -2.1012779900
   49       -0.0000000000
   50        0.0000000000
   51        0.6298297900
   52        0.0000000000
   53       -0.0000000000
   54        0.5345562300
   55        0.0000000000
   56       -0.0000000000
   57       -1.3643070300
   58        0.0214271000
   59        0.0214271000
   60       -0.0000000000
   61        0.0000000000
   62       -0.0000000000
   63        0.7098825300
   64        0.0900152300
   65        0.0900152300
   66        0.0000000000
   67       -0.0000000000
   68        0.0000000000
 Ene=          0.00708572
 Spin= Alpha
 Occup=        0.00000000
    1        0.0000000000
    2       -0.0000000000
    3        0.0000000000
    4       -0.0000000000
    5        0.0000000000
    6       -0.0000000000
    7        0.0000000000
    8       -0.0000000000
    9       -0.0000000000
   10        0.0000000000
   11        0.0000000000
   12      -10.8326935500
   13      -11.9011464400
   14       -0.0000000000
   15        2.4113794200
   16        2.6492191900
   17        0.0000000000
   18       -0.6374421100
   19       -0.7003144600
   20        0.0000000000
   21       -0.4227470800
   22       -0.4644435700
   23       -0.0000000000
   24       -0.0000000000
   25       -0.0000000000
   26       -1.1572510400
   27       -1.2713933100
   28        0.0000000000
   29       -0.0000000000
   30       -0.0000000000
   31       -0.0000000000
   32        0.4031622700
   33        0.4429270700
   34       -0.0000000000
   35       -0.0000000000
   36        0.0000000000
   37       -0.0000000000
   38       -0.0000000000
   39       -0.0000000000
   40       -0.0000000000
   41       -0.0000000000
   42        0.0000000000
   43        0.0000000000
   44       -0.0000000000
   45        0.0000000000
   46       10.8326935500
   47       11.9011464400
   48       -0.0000000000
   49       -2.4113794200
   50       -2.6492191900
   51        0.0000000000
   52        0.6374421100
   53        0.7003144600
   54       -0.0000000000
   55        0.4227470800
   56        0.4644435700
   57       -0.0000000000
   58        0.0000000000
   59        0.0000000000
   60       -1.1572510400
   61       -1.2713933100
   62       -0.0000000000
   63        0.0000000000
   64        0.0000000000
   65        0.0000000000
   66        0.4031622700
   67        0.4429270700
   68        0.0000000000
 Ene=          0.00708572
 Spin= Alpha
 Occup=        0.00000000
    1        0.0000000000
    2        0.0000000000
    3       -0.0000000000
    4        0.0000000000
    5       -0.0000000000
    6        0.0000000000
    7       -0.0000000000
    8        0.0000000000
    9       -0.0000000000
   10        0.0000000000
   11        0.0000000000
   12       11.9011464400
   13      -10.8326935500
   14        0.0000000000
   15       -2.6492191900
   16        2.4113794200
   17       -0.0000000000
   18        0.7003144600
   19       -0.6374421100
   20       -0.0000000000
   21        0.4644435700
   22       -0.4227470800
   23        0.0000000000
   24        0.0000000000
   25        0.0000000000
   26        1.2713933100
   27       -1.1572510400
   28       -0.0000000000
   29        0.0000000000
   30        0.0000000000
   31        0.0000000000
   32       -0.4429270700
   33        0.4031622700
   34        0.0000000000
   35       -0.0000000000
   36       -0.0000000000
   37        0.0000000000
   38        0.0000000000
   39       -0.0000000000
   40        0.0000000000
   41       -0.0000000000
   42       -0.0000000000
   43       -0.0000000000
   44        0.0000000000
   45        0.0000000000
   46      -11.9011464400
   47       10.8326935500
   48        0.0000000000
   49        2.6492191900
   50       -2.4113794200
   51       -0.0000000000
   52       -0.7003144600
   53        0.6374421100
   54        0.0000000000
   55       -0.4644435700
   56        0.4227470800
   57        0.0000000000
   58       -0.0000000000
   59       -0.0000000000
   60        1.2713933100
   61       -1.1572510400
   62        0.0000000000
   63       -0.0000000000
   64       -0.0000000000
   65       -0.0000000000
   66       -0.4429270700
   67        0.4031622700
   68       -0.0000000000
 Ene=          0.01039040
 Spin= Alpha
 Occup=        0.00000000
    1        0.0000000000
    2        0.0000000000
    3        0.0000000000
    4        0.0000000000
    5        0.0000000000
    6        0.0000000000
    7        0.0000000000
    8       -0.0000000000
    9       -0.0000000000
   10        0.0000000000
   11       -0.0000000000
   12       -0.0403618700
   13        0.0060932100
   14       -0.0000000000
   15        0.1574128300
   16       -0.0237637600
   17        0.0000000000
   18       -0.7798456500
   19        0.1177290600
   20        0.0000000000
   21        0.8542406400
   22       -0.1289600700
   23       -0.0000000000
   24        0.0000000000
   25        0.0000000000
   26       -0.0542017100
   27        0.0081825400
   28        0.0000000000
   29       -0.0000000000
   30       -0.0000000000
   31       -0.0000000000
   32       -0.0013490600
   33        0.0002036600
   34       -0.0000000000
   35        0.0000000000
   36        0.0000000000
   37       -0.0000000000
   38       -0.0000000000
   39       -0.0000000000
   40       -0.0000000000
   41       -0.0000000000
   42        0.0000000000
   43        0.0000000000
   44       -0.0000000000
   45        0.0000000000
   46       -0.0403618700
   47        0.0060932100
   48        0.0000000000
   49        0.1574128300
   50       -0.0237637600
   51        0.0000000000
   52       -0.7798456500
   53        0.1177290600
   54        0.0000000000
   55        0.8542406400
   56       -0.1289600700
   57       -0.0000000000
   58       -0.0000000000
   59       -0.0000000000
   60        0.0542017100
   61       -0.0081825400
   62       -0.0000000000
   63       -0.0000000000
   64        0.0000000000
   65        0.0000000000
   66        0.0013490600
   67       -0.0002036600
   68        0.0000000000
 Ene=          0.01039040
 Spin= Alpha
 Occup=        0.00000000
    1        0.0000000000
    2       -0.0000000000
    3       -0.0000000000
    4       -0.0000000000
    5        0.0000000000
    6       -0.0000000000
    7       -0.0000000000
    8        0.0000000000
    9        0.0000000000
   10       -0.0000000000
   11       -0.0000000000
   12       -0.0060932100
   13       -0.0403618700
   14        0.0000000000
   15        0.0237637600
   16        0.1574128300
   17       -0.0000000000
   18       -0.1177290600
   19       -0.7798456500
   20       -0.0000000000
   21        0.1289600700
   22        0.8542406400
   23       -0.0000000000
   24       -0.0000000000
   25       -0.0000000000
   26       -0.0081825400
   27       -0.0542017100
   28       -0.0000000000
   29        0.0000000000
   30        0.0000000000
   31        0.0000000000
   32       -0.0002036600
   33       -0.0013490600
   34        0.0000000000
   35        0.0000000000
   36       -0.0000000000
   37        0.0000000000
   38        0.0000000000
   39        0.0000000000
   40        0.0000000000
   41        0.0000000000
   42       -0.0000000000
   43       -0.0000000000
   44       -0.0000000000
   45        0.0000000000
   46       -0.0060932100
   47       -0.0403618700
   48       -0.0000000000
   49        0.0237637600
   50        0.1574128300
   51       -0.0000000000
   52       -0.1177290600
   53       -0.7798456500
   54       -0.0000000000
   55        0.1289600700
   56        0.8542406400
   57       -0.0000000000
   58        0.0000000000
   59        0.0000000000
   60        0.0081825400
   61        0.0542017100
   62        0.0000000000
   63        0.0000000000
   64        0.0000000000
   65        0.0000000000
   66        0.0002036600
   67        0.0013490600
   68       -0.0000000000
 Ene=          0.01054960
 Spin= Alpha
 Occup=        0.00000000
    1        0.0065459600
    2       -0.0422714000
    3      -13.7899611000
    4       -1.3625032500
    5       -0.0224703300
    6       -0.0448743800
    7       -0.0169154100
    8        0.0154746400
    9        0.0013982600
   10       -0.0000605600
   11       -0.0565612200
   12        0.0000000000
   13        0.0000000000
   14        0.1297819000
   15       -0.0000000000
   16        0.0000000000
   17       -4.1622846600
   18        0.0000000000
   19        0.0000000000
   20       -2.1692567400
   21       -0.0000000000
   22       -0.0000000000
   23        0.0116399300
   24       -0.1978857600
   25       -0.1978857600
   26        0.0000000000
   27        0.0000000000
   28        0.0000000000
   29       -0.1560501600
   30        0.1624438900
   31        0.1624438900
   32       -0.0000000000
   33        0.0000000000
   34       -0.0000000000
   35       -0.0065459600
   36        0.0422714000
   37       13.7899611000
   38        1.3625032500
   39        0.0224703300
   40        0.0448743800
   41        0.0169154100
   42       -0.0154746400
   43       -0.0013982600
   44        0.0000605600
   45       -0.0565612200
   46       -0.0000000000
   47       -0.0000000000
   48        0.1297819000
   49        0.0000000000
   50       -0.0000000000
   51       -4.1622846600
   52       -0.0000000000
   53        0.0000000000
   54       -2.1692567400
   55        0.0000000000
   56       -0.0000000000
   57       -0.0116399300
   58        0.1978857600
   59        0.1978857600
   60        0.0000000000
   61        0.0000000000
   62       -0.0000000000
   63        0.1560501600
   64       -0.1624438900
   65       -0.1624438900
   66       -0.0000000000
   67        0.0000000000
   68        0.0000000000
 Ene=          0.01322450
 Spin= Alpha
 Occup=        0.00000000
    1        0.5814887100
    2       -0.5070010500
    3       -0.0898533600
    4        1.5600440100
    5       -1.2988648200
    6        0.0910581300
    7       -0.1417068400
    8        0.0811342500
    9        0.0000568600
   10        0.0007200000
   11       -4.9053175800
   12       -0.0000000000
   13       -0.0000000000
   14        0.3583930500
   15        0.0000000000
   16       -0.0000000000
   17       -0.5617401200
   18       -0.0000000000
   19        0.0000000000
   20        0.3526703400
   21        0.0000000000
   22       -0.0000000000
   23       -0.8446878200
   24        0.0689902400
   25        0.0689902400
   26       -0.0000000000
   27       -0.0000000000
   28        0.0000000000
   29        0.2928514100
   30        0.2273445500
   31        0.2273445500
   32        0.0000000000
   33       -0.0000000000
   34        0.0000000000
   35        0.5814887100
   36       -0.5070010500
   37       -0.0898533600
   38        1.5600440100
   39       -1.2988648200
   40        0.0910581300
   41       -0.1417068400
   42        0.0811342500
   43        0.0000568600
   44        0.0007200000
   45        4.9053175800
   46        0.0000000000
   47        0.0000000000
   48       -0.3583930500
   49       -0.0000000000
   50        0.0000000000
   51        0.5617401200
   52        0.0000000000
   53       -0.0000000000
   54       -0.3526703400
   55       -0.0000000000
   56        0.0000000000
   57       -0.8446878200
   58        0.0689902400
   59        0.0689902400
   60       -0.0000000000
   61       -0.0000000000
   62        0.0000000000
   63        0.2928514100
   64        0.2273445500
   65        0.2273445500
   66        0.0000000000
   67       -0.0000000000
   68       -0.0000000000
 Ene=          0.01557360
 Spin= Alpha
 Occup=        0.00000000
    1       -0.0000000000
    2        0.0000000000
    3       -0.0000000000
    4        0.0000000000
    5       -0.0000000000
    6        0.0000000000
    7       -0.0000000000
    8        0.0000000000
    9       -0.0000000000
   10        0.0000000000
   11        0.0000000000
   12       19.4311396800
   13       26.5202080100
   14        0.0000000000
   15       -4.1050186200
   16       -5.6026537500
   17        0.0000000000
   18        1.4193360000
   19        1.9371527600
   20       -0.0000000000
   21       -0.7455653800
   22       -1.0175702100
   23        0.0000000000
   24       -0.0000000000
   25       -0.0000000000
   26        2.0749551800
   27        2.8319616900
   28       -0.0000000000
   29       -0.0000000000
   30       -0.0000000000
   31       -0.0000000000
   32       -0.6773947800
   33       -0.9245289200
   34        0.0000000000
   35        0.0000000000
   36       -0.0000000000
   37        0.0000000000
   38       -0.0000000000
   39        0.0000000000
   40       -0.0000000000
   41        0.0000000000
   42        0.0000000000
   43        0.0000000000
   44        0.0000000000
   45       -0.0000000000
   46      -19.4311396800
   47      -26.5202080100
   48        0.0000000000
   49        4.1050186200
   50        5.6026537500
   51       -0.0000000000
   52       -1.4193360000
   53       -1.9371527600
   54        0.0000000000
   55        0.7455653800
   56        1.0175702100
   57        0.0000000000
   58       -0.0000000000
   59       -0.0000000000
   60        2.0749551800
   61        2.8319616900
   62        0.0000000000
   63       -0.0000000000
   64       -0.0000000000
   65       -0.0000000000
   66       -0.6773947800
   67       -0.9245289200
   68       -0.0000000000
 Ene=          0.01557360
 Spin= Alpha
 Occup=        0.00000000
    1       -0.0000000000
    2       -0.0000000000
    3        0.0000000000
    4       -0.0000000000
    5        0.0000000000
    6       -0.0000000000
    7        0.0000000000
    8       -0.0000000000
    9        0.0000000000
   10       -0.0000000000
   11       -0.0000000000
   12      -26.5202080100
   13       19.4311396800
   14       -0.0000000000
   15        5.6026537500
   16       -4.1050186200
   17       -0.0000000000
   18       -1.9371527600
   19        1.4193360000
   20        0.0000000000
   21        1.0175702100
   22       -0.7455653800
   23       -0.0000000000
   24        0.0000000000
   25        0.0000000000
   26       -2.8319616900
   27        2.0749551800
   28        0.0000000000
   29       -0.0000000000
   30        0.0000000000
   31        0.0000000000
   32        0.9245289200
   33       -0.6773947800
   34       -0.0000000000
   35        0.0000000000
   36        0.0000000000
   37        0.0000000000
   38       -0.0000000000
   39        0.0000000000
   40       -0.0000000000
   41        0.0000000000
   42       -0.0000000000
   43        0.0000000000
   44       -0.0000000000
   45        0.0000000000
   46       26.5202080100
   47      -19.4311396800
   48       -0.0000000000
   49       -5.6026537500
   50        4.1050186200
   51        0.0000000000
   52        1.9371527600
   53       -1.4193360000
   54       -0.0000000000
   55       -1.0175702100
   56        0.7455653800
   57       -0.0000000000
   58        0.0000000000
   59        0.0000000000
   60       -2.8319616900
   61        2.0749551800
   62       -0.0000000000
   63        0.0000000000
   64        0.0000000000
   65        0.0000000000
   66        0.9245289200
   67       -0.6773947800
   68        0.0000000000
 Ene=          0.01567320
 Spin= Alpha
 Occup=        0.00000000
    1       -0.0165502300
    2       -0.0571868600
    3       -0.0146951700
    4       -3.5939520500
    5        1.2934062700
    6       -0.1096413800
    7        0.1208299300
    8       -0.0660992400
    9        0.0006118800
   10       -0.0006809700
   11        0.1367057500
   12        0.0000000000
   13        0.0000000000
   14        0.2381764700
   15       -0.0000000000
   16       -0.0000000000