[Molden Format]
[Atoms] AU
E+       1       4     0.00000000     0.00000000     0.00000000
E+       2       4     4.20000000     0.00000000     0.00000000
[GTO]
  1 0
s  1 1.00
   1.0000000000E-04   1.0000000000E+00
s  1 1.00
   3.0000000000E-04   1.0000000000E+00
s  1 1.00
   9.0000000000E-04   1.0000000000E+00
s  1 1.00
   2.7000000000E-03   1.0000000000E+00
s  1 1.00
   8.1000000000E-03   1.0000000000E+00
s  1 1.00
   2.4300000000E-02   1.0000000000E+00
s  1 1.00
   7.2900000000E-02   1.0000000000E+00
s  1 1.00
   2.1870000000E-01   1.0000000000E+00
s  1 1.00
   6.5610000000E-01   1.0000000000E+00
s  1 1.00
   1.9683000000E+00   1.0000000000E+00
p  1 1.00
   1.0000000000E-04   1.0000000000E+00
p  1 1.00
   3.0000000000E-04   1.0000000000E+00
p  1 1.00
   9.0000000000E-04   1.0000000000E+00
p  1 1.00
   2.7000000000E-03   1.0000000000E+00
d  1 1.00
   1.0000000000E-04   1.0000000000E+00
d  1 1.00
   3.0000000000E-04   1.0000000000E+00
 
  2 0
s  1 1.00
   1.0000000000E-04   1.0000000000E+00
s  1 1.00
   3.0000000000E-04   1.0000000000E+00
s  1 1.00
   9.0000000000E-04   1.0000000000E+00
s  1 1.00
   2.7000000000E-03   1.0000000000E+00
s  1 1.00
   8.1000000000E-03   1.0000000000E+00
s  1 1.00
   2.4300000000E-02   1.0000000000E+00
s  1 1.00
   7.2900000000E-02   1.0000000000E+00
s  1 1.00
   2.1870000000E-01   1.0000000000E+00
s  1 1.00
   6.5610000000E-01   1.0000000000E+00
s  1 1.00
   1.9683000000E+00   1.0000000000E+00
p  1 1.00
   1.0000000000E-04   1.0000000000E+00
p  1 1.00
   3.0000000000E-04   1.0000000000E+00
p  1 1.00
   9.0000000000E-04   1.0000000000E+00
p  1 1.00
   2.7000000000E-03   1.0000000000E+00
d  1 1.00
   1.0000000000E-04   1.0000000000E+00
d  1 1.00
   3.0000000000E-04   1.0000000000E+00
 
 
[MO]
Ene=    -2.17083E-02
Spin= Alpha
Occup=   1.0000000000
   1      -0.00656353
   2      -0.00775916
   3       0.01268906
   4       0.00820458
   5       0.16320291
   6       0.25927575
   7       0.25422782
   8      -0.19401829
   9      -0.01403319
  10       0.00007785
  11      -0.00031441
  12      -0.00000000
  13      -0.00000000
  14      -0.00075500
  15       0.00000000
  16       0.00000000
  17      -0.02285923
  18       0.00000000
  19       0.00000000
  20       0.02758708
  21      -0.00000000
  22      -0.00000000
  23       0.00114037
  24       0.00085424
  25       0.00085424
  26       0.00000000
  27       0.00000000
  28       0.00000000
  29       0.00272886
  30       0.00362978
  31       0.00362978
  32      -0.00000000
  33      -0.00000000
  34      -0.00000000
  35      -0.00656353
  36      -0.00775916
  37       0.01268906
  38       0.00820458
  39       0.16320291
  40       0.25927575
  41       0.25422782
  42      -0.19401829
  43      -0.01403319
  44       0.00007785
  45       0.00031441
  46       0.00000000
  47      -0.00000000
  48       0.00075500
  49       0.00000000
  50      -0.00000000
  51       0.02285923
  52      -0.00000000
  53       0.00000000
  54      -0.02758708
  55       0.00000000
  56      -0.00000000
  57       0.00114037
  58       0.00085424
  59       0.00085424
  60      -0.00000000
  61      -0.00000000
  62      -0.00000000
  63       0.00272886
  64       0.00362978
  65       0.00362978
  66       0.00000000
  67       0.00000000
  68       0.00000000
Ene=     2.12235E-03
Spin= Alpha
Occup=   0.0000000000
   1       0.12887998
   2       0.31484982
   3      -1.09099849
   4       0.50100570
   5      -0.09089415
   6       0.09171316
   7       0.01022361
   8      -0.01652839
   9      -0.00320176
  10       0.00027280
  11       0.00604819
  12       0.00000000
  13       0.00000000
  14       0.02843064
  15       0.00000000
  16      -0.00000000
  17       0.14592459
  18      -0.00000000
  19       0.00000000
  20      -0.13026853
  21       0.00000000
  22      -0.00000000
  23      -0.01880585
  24      -0.01678549
  25      -0.01678549
  26       0.00000000
  27      -0.00000000
  28       0.00000000
  29      -0.08398311
  30      -0.09177230
  31      -0.09177230
  32       0.00000000
  33       0.00000000
  34      -0.00000000
  35       0.12887998
  36       0.31484982
  37      -1.09099849
  38       0.50100570
  39      -0.09089415
  40       0.09171316
  41       0.01022361
  42      -0.01652839
  43      -0.00320176
  44       0.00027280
  45      -0.00604819
  46      -0.00000000
  47      -0.00000000
  48      -0.02843064
  49      -0.00000000
  50       0.00000000
  51      -0.14592459
  52       0.00000000
  53      -0.00000000
  54       0.13026853
  55      -0.00000000
  56       0.00000000
  57      -0.01880585
  58      -0.01678549
  59      -0.01678549
  60      -0.00000000
  61       0.00000000
  62      -0.00000000
  63      -0.08398311
  64      -0.09177230
  65      -0.09177230
  66      -0.00000000
  67      -0.00000000
  68       0.00000000
Ene=     2.93319E-03
Spin= Alpha
Occup=   0.0000000000
   1      -0.00420506
   2      -0.00798893
   3       0.08324168
   4      -0.11052077
   5       0.39147988
   6       0.01685049
   7       0.03861021
   8      -0.01765484
   9       0.00040615
  10      -0.00023816
  11       0.18062716
  12      -0.00000000
  13       0.00000000
  14       0.15444371
  15      -0.00000000
  16       0.00000000
  17      -0.78184856
  18       0.00000000
  19       0.00000000
  20       0.09252986
  21      -0.00000000
  22       0.00000000
  23       1.61400838
  24       1.59550382
  25       1.59550382
  26      -0.00000000
  27       0.00000000
  28      -0.00000000
  29       3.08964948
  30       3.10924037
  31       3.10924037
  32      -0.00000000
  33       0.00000000
  34      -0.00000000
  35       0.00420506
  36       0.00798893
  37      -0.08324168
  38       0.11052077
  39      -0.39147988
  40      -0.01685049
  41      -0.03861021
  42       0.01765484
  43      -0.00040615
  44       0.00023816
  45       0.18062716
  46       0.00000000
  47      -0.00000000
  48       0.15444371
  49       0.00000000
  50      -0.00000000
  51      -0.78184856
  52      -0.00000000
  53       0.00000000
  54       0.09252986
  55       0.00000000
  56      -0.00000000
  57      -1.61400838
  58      -1.59550382
  59      -1.59550382
  60      -0.00000000
  61       0.00000000
  62       0.00000000
  63      -3.08964948
  64      -3.10924037
  65      -3.10924037
  66      -0.00000000
  67       0.00000000
  68       0.00000000
Ene=     3.41012E-03
Spin= Alpha
Occup=   0.0000000000
   1      -0.00000000
   2      -0.00000000
   3       0.00000000
   4      -0.00000000
   5      -0.00000000
   6       0.00000000
   7       0.00000000
   8      -0.00000000
   9       0.00000000
  10       0.00000000
  11      -0.00000000
  12       0.02608633
  13       0.00229535
  14       0.00000000
  15      -0.11718864
  16      -0.01031149
  17      -0.00000000
  18       0.56962562
  19       0.05012167
  20      -0.00000000
  21       0.00651725
  22       0.00057346
  23      -0.00000000
  24      -0.00000000
  25      -0.00000000
  26       0.40335518
  27       0.03549144
  28      -0.00000000
  29      -0.00000000
  30      -0.00000000
  31      -0.00000000
  32      -0.24599504
  33      -0.02164524
  34       0.00000000
  35      -0.00000000
  36      -0.00000000
  37      -0.00000000
  38       0.00000000
  39      -0.00000000
  40       0.00000000
  41      -0.00000000
  42       0.00000000
  43      -0.00000000
  44       0.00000000
  45       0.00000000
  46       0.02608633
  47       0.00229535
  48      -0.00000000
  49      -0.11718864
  50      -0.01031149
  51       0.00000000
  52       0.56962562
  53       0.05012167
  54      -0.00000000
  55       0.00651725
  56       0.00057346
  57       0.00000000
  58       0.00000000
  59       0.00000000
  60      -0.40335518
  61      -0.03549144
  62       0.00000000
  63       0.00000000
  64       0.00000000
  65       0.00000000
  66       0.24599504
  67       0.02164524
  68      -0.00000000
Ene=     3.41012E-03
Spin= Alpha
Occup=   0.0000000000
   1       0.00000000
   2      -0.00000000
   3       0.00000000
   4      -0.00000000
   5      -0.00000000
   6      -0.00000000
   7      -0.00000000
   8       0.00000000
   9       0.00000000
  10      -0.00000000
  11      -0.00000000
  12      -0.00229535
  13       0.02608633
  14       0.00000000
  15       0.01031149
  16      -0.11718864
  17      -0.00000000
  18      -0.05012167
  19       0.56962562
  20       0.00000000
  21      -0.00057346
  22       0.00651725
  23       0.00000000
  24       0.00000000
  25       0.00000000
  26      -0.03549144
  27       0.40335518
  28       0.00000000
  29       0.00000000
  30       0.00000000
  31       0.00000000
  32       0.02164524
  33      -0.24599504
  34      -0.00000000
  35      -0.00000000
  36      -0.00000000
  37      -0.00000000
  38       0.00000000
  39       0.00000000
  40       0.00000000
  41       0.00000000
  42      -0.00000000
  43      -0.00000000
  44       0.00000000
  45       0.00000000
  46      -0.00229535
  47       0.02608633
  48      -0.00000000
  49       0.01031149
  50      -0.11718864
  51       0.00000000
  52      -0.05012167
  53       0.56962562
  54      -0.00000000
  55      -0.00057346
  56       0.00651725
  57      -0.00000000
  58      -0.00000000
  59      -0.00000000
  60       0.03549144
  61      -0.40335518
  62      -0.00000000
  63      -0.00000000
  64      -0.00000000
  65      -0.00000000
  66      -0.02164524
  67       0.24599504
  68       0.00000000
Ene=     6.59025E-03
Spin= Alpha
Occup=   0.0000000000
   1       0.00000000
   2       0.00000000
   3      -0.00000000
   4      -0.00000000
   5      -0.00000000
   6       0.00000000
   7       0.00000000
   8      -0.00000000
   9      -0.00000000
  10      -0.00000000
  11      -0.00000000
  12      -0.00043846
  13      -0.00022658
  14       0.00000000
  15       0.00115903
  16       0.00059894
  17       0.00000000
  18      -6.51205348
  19      -3.36516034
  20       0.00000000
  21      -1.04889627
  22      -0.54202628
  23       0.00000000
  24      -0.00000000
  25       0.00000000
  26       0.03221627
  27       0.01664804
  28       0.00000000
  29      -0.00000000
  30      -0.00000000
  31      -0.00000000
  32      -0.09531972
  33      -0.04925729
  34      -0.00000000
  35       0.00000000
  36       0.00000000
  37      -0.00000000
  38      -0.00000000
  39      -0.00000000
  40      -0.00000000
  41      -0.00000000
  42      -0.00000000
  43       0.00000000
  44       0.00000000
  45       0.00000000
  46       0.00043846
  47       0.00022658
  48      -0.00000000
  49      -0.00115903
  50      -0.00059894
  51      -0.00000000
  52       6.51205348
  53       3.36516034
  54      -0.00000000
  55       1.04889627
  56       0.54202628
  57      -0.00000000
  58      -0.00000000
  59      -0.00000000
  60       0.03221627
  61       0.01664804
  62      -0.00000000
  63      -0.00000000
  64      -0.00000000
  65      -0.00000000
  66      -0.09531972
  67      -0.04925729
  68       0.00000000
Ene=     6.59025E-03
Spin= Alpha
Occup=   0.0000000000
   1      -0.00000000
   2      -0.00000000
   3       0.00000000
   4       0.00000000
   5       0.00000000
   6       0.00000000
   7      -0.00000000
   8       0.00000000
   9       0.00000000
  10      -0.00000000
  11      -0.00000000
  12      -0.00022658
  13       0.00043846
  14      -0.00000000
  15       0.00059894
  16      -0.00115903
  17      -0.00000000
  18      -3.36516034
  19       6.51205348
  20      -0.00000000
  21      -0.54202628
  22       1.04889627
  23      -0.00000000
  24      -0.00000000
  25      -0.00000000
  26       0.01664804
  27      -0.03221627
  28      -0.00000000
  29      -0.00000000
  30      -0.00000000
  31      -0.00000000
  32      -0.04925729
  33       0.09531972
  34       0.00000000
  35      -0.00000000
  36      -0.00000000
  37       0.00000000
  38       0.00000000
  39       0.00000000
  40      -0.00000000
  41      -0.00000000
  42       0.00000000
  43       0.00000000
  44      -0.00000000
  45       0.00000000
  46       0.00022658
  47      -0.00043846
  48       0.00000000
  49      -0.00059894
  50       0.00115903
  51       0.00000000
  52       3.36516034
  53      -6.51205348
  54       0.00000000
  55       0.54202628
  56      -1.04889627
  57       0.00000000
  58       0.00000000
  59       0.00000000
  60       0.01664804
  61      -0.03221627
  62       0.00000000
  63       0.00000000
  64       0.00000000
  65       0.00000000
  66      -0.04925729
  67       0.09531972
  68      -0.00000000
Ene=     6.62971E-03
Spin= Alpha
Occup=   0.0000000000
   1      -0.27158995
   2      -0.56912618
   3       0.53517702
   4       0.45338937
   5       0.01406913
   6      -0.00286710
   7      -0.00108000
   8       0.00081890
   9      -0.00000891
  10       0.00001158
  11      -0.01357410
  12      -0.00000000
  13      -0.00000000
  14      -0.04984148
  15      -0.00000000
  16       0.00000000
  17      -6.18896071
  18      -0.00000000
  19      -0.00000000
  20      -1.09757346
  21      -0.00000000
  22      -0.00000000
  23       0.07293080
  24       0.02090084
  25       0.02090084
  26       0.00000000
  27       0.00000000
  28       0.00000000
  29       0.06391971
  30       0.22275836
  31       0.22275836
  32      -0.00000000
  33      -0.00000000
  34      -0.00000000
  35      -0.27158995
  36      -0.56912618
  37       0.53517702
  38       0.45338937
  39       0.01406913
  40      -0.00286710
  41      -0.00108000
  42       0.00081890
  43      -0.00000891
  44       0.00001158
  45       0.01357410
  46       0.00000000
  47       0.00000000
  48       0.04984148
  49       0.00000000
  50      -0.00000000
  51       6.18896071
  52       0.00000000
  53       0.00000000
  54       1.09757346
  55       0.00000000
  56       0.00000000
  57       0.07293080
  58       0.02090084
  59       0.02090084
  60       0.00000000
  61       0.00000000
  62      -0.00000000
  63       0.06391971
  64       0.22275836
  65       0.22275836
  66      -0.00000000
  67      -0.00000000
  68       0.00000000
Ene=     7.43022E-03
Spin= Alpha
Occup=   0.0000000000
   1       0.00349949
   2       0.00728482
   3      -0.07751620
   4       0.16462537
   5       0.05752535
   6       0.26899030
   7       0.06778196
   8      -0.04002432
   9      -0.00202729
  10      -0.00013214
  11      -0.15033693
  12       0.00000000
  13      -0.00000000
  14      -0.14459069
  15       0.00000000
  16      -0.00000000
  17       0.76972249
  18       0.00000000
  19      -0.00000000
  20      -0.70429554
  21       0.00000000
  22      -0.00000000
  23      -1.34178347
  24      -1.32295766
  25      -1.32295766
  26       0.00000000
  27      -0.00000000
  28      -0.00000000
  29      -2.63872359
  30      -2.65900937
  31      -2.65900937
  32       0.00000000
  33      -0.00000000
  34       0.00000000
  35      -0.00349949
  36      -0.00728482
  37       0.07751620
  38      -0.16462537
  39      -0.05752535
  40      -0.26899030
  41      -0.06778196
  42       0.04002432
  43       0.00202729
  44       0.00013214
  45      -0.15033693
  46      -0.00000000
  47       0.00000000
  48      -0.14459069
  49      -0.00000000
  50       0.00000000
  51       0.76972249
  52      -0.00000000
  53       0.00000000
  54      -0.70429554
  55      -0.00000000
  56       0.00000000
  57       1.34178347
  58       1.32295766
  59       1.32295766
  60       0.00000000
  61      -0.00000000
  62       0.00000000
  63       2.63872359
  64       2.65900937
  65       2.65900937
  66       0.00000000
  67      -0.00000000
  68      -0.00000000
Ene=     8.63916E-03
Spin= Alpha
Occup=   0.0000000000
   1       0.08403201
   2      -0.14936708
   3       0.89286159
   4      -1.47649254
   5       0.65444259
   6      -0.04861378
   7       0.11845477
   8      -0.06702262
   9      -0.00097265
  10      -0.00053328
  11       0.00390121
  12      -0.00000000
  13      -0.00000000
  14      -0.00992274
  15      -0.00000000
  16       0.00000000
  17      -0.90819044
  18       0.00000000
  19      -0.00000000
  20       0.54563951
  21      -0.00000000
  22       0.00000000
  23      -0.00763863
  24      -0.01736704
  25      -0.01736704
  26      -0.00000000
  27      -0.00000000
  28      -0.00000000
  29      -0.02529420
  30       0.00219463
  31       0.00219463
  32       0.00000000
  33       0.00000000
  34       0.00000000
  35       0.08403201
  36      -0.14936708
  37       0.89286159
  38      -1.47649254
  39       0.65444259
  40      -0.04861378
  41       0.11845477
  42      -0.06702262
  43      -0.00097265
  44      -0.00053328
  45      -0.00390121
  46       0.00000000
  47       0.00000000
  48       0.00992274
  49       0.00000000
  50      -0.00000000
  51       0.90819044
  52      -0.00000000
  53      -0.00000000
  54      -0.54563951
  55       0.00000000
  56       0.00000000
  57      -0.00763863
  58      -0.01736704
  59      -0.01736704
  60       0.00000000
  61       0.00000000
  62       0.00000000
  63      -0.02529420
  64       0.00219463
  65       0.00219463
  66      -0.00000000
  67      -0.00000000
  68      -0.00000000
Ene=     8.73053E-03
Spin= Alpha
Occup=   0.0000000000
   1       0.00000000
   2       0.00000000
   3       0.00000000
   4      -0.00000000
   5       0.00000000
   6       0.00000000
   7       0.00000000
   8      -0.00000000
   9      -0.00000000
  10       0.00000000
  11      -0.00000000
  12       0.02095912
  13       0.01152214
  14       0.00000000
  15      -0.09593721
  16      -0.05274085
  17       0.00000000
  18       0.54147426
  19       0.29767190
  20       0.00000000
  21      -0.64727210
  22      -0.35583356
  23       0.00000000
  24       0.00000000
  25       0.00000000
  26       0.30732519
  27       0.16894999
  28      -0.00000000
  29       0.00000000
  30       0.00000000
  31       0.00000000
  32      -0.18424232
  33      -0.10128600
  34       0.00000000
  35      -0.00000000
  36      -0.00000000
  37      -0.00000000
  38       0.00000000
  39      -0.00000000
  40      -0.00000000
  41      -0.00000000
  42       0.00000000
  43      -0.00000000
  44       0.00000000
  45       0.00000000
  46       0.02095912
  47       0.01152214
  48      -0.00000000
  49      -0.09593721
  50      -0.05274085
  51      -0.00000000
  52       0.54147426
  53       0.29767190
  54      -0.00000000
  55      -0.64727210
  56      -0.35583356
  57      -0.00000000
  58      -0.00000000
  59      -0.00000000
  60      -0.30732519
  61      -0.16894999
  62       0.00000000
  63      -0.00000000
  64      -0.00000000
  65      -0.00000000
  66       0.18424232
  67       0.10128600
  68      -0.00000000
Ene=     8.73053E-03
Spin= Alpha
Occup=   0.0000000000
   1      -0.00000000
   2       0.00000000
   3      -0.00000000
   4       0.00000000
   5      -0.00000000
   6       0.00000000
   7      -0.00000000
   8       0.00000000
   9      -0.00000000
  10       0.00000000
  11      -0.00000000
  12       0.01152214
  13      -0.02095912
  14      -0.00000000
  15      -0.05274085
  16       0.09593721
  17       0.00000000
  18       0.29767190
  19      -0.54147426
  20       0.00000000
  21      -0.35583356
  22       0.64727210
  23      -0.00000000
  24      -0.00000000
  25      -0.00000000
  26       0.16894999
  27      -0.30732519
  28       0.00000000
  29      -0.00000000
  30      -0.00000000
  31      -0.00000000
  32      -0.10128600
  33       0.18424232
  34       0.00000000
  35       0.00000000
  36       0.00000000
  37      -0.00000000
  38       0.00000000
  39      -0.00000000
  40       0.00000000
  41      -0.00000000
  42       0.00000000
  43       0.00000000
  44       0.00000000
  45      -0.00000000
  46       0.01152214
  47      -0.02095912
  48       0.00000000
  49      -0.05274085
  50       0.09593721
  51      -0.00000000
  52       0.29767190
  53      -0.54147426
  54       0.00000000
  55      -0.35583356
  56       0.64727210
  57       0.00000000
  58       0.00000000
  59       0.00000000
  60      -0.16894999
  61       0.30732519
  62      -0.00000000
  63       0.00000000
  64       0.00000000
  65       0.00000000
  66       0.10128600
  67      -0.18424232
  68      -0.00000000
Ene=     1.44644E-02
Spin= Alpha
Occup=   0.0000000000
   1      -0.00000000
   2      -0.00000000
   3       0.00000000
   4      -0.00000000
   5      -0.00000000
   6       0.00000000
   7      -0.00000000
   8       0.00000000
   9      -0.00000000
  10       0.00000000
  11       0.00000000
  12       0.00009033
  13      -0.00035345
  14      -0.00000000
  15      -0.00007418
  16       0.00029025
  17      -0.00000000
  18       2.20774257
  19      -8.63850725
  20       0.00000000
  21      -1.44948402
  22       5.67157528
  23       0.00000000
  24       0.00000000
  25       0.00000000
  26      -0.00876370
  27       0.03429080
  28       0.00000000
  29       0.00000000
  30       0.00000000
  31       0.00000000
  32       0.02650024
  33      -0.10369078
  34       0.00000000
  35      -0.00000000
  36      -0.00000000
  37       0.00000000
  38       0.00000000
  39      -0.00000000
  40       0.00000000
  41      -0.00000000
  42       0.00000000
  43      -0.00000000
  44       0.00000000
  45       0.00000000
  46      -0.00009033
  47       0.00035345
  48       0.00000000
  49       0.00007418
  50      -0.00029025
  51       0.00000000
  52      -2.20774257
  53       8.63850725
  54      -0.00000000
  55       1.44948402
  56      -5.67157528
  57      -0.00000000
  58      -0.00000000
  59      -0.00000000
  60      -0.00876370
  61       0.03429080
  62      -0.00000000
  63      -0.00000000
  64      -0.00000000
  65      -0.00000000
  66       0.02650024
  67      -0.10369078
  68      -0.00000000
Ene=     1.44644E-02
Spin= Alpha
Occup=   0.0000000000
   1       0.00000000
   2      -0.00000000
   3      -0.00000000
   4       0.00000000
   5       0.00000000
   6      -0.00000000
   7       0.00000000
   8      -0.00000000
   9       0.00000000
  10      -0.00000000
  11       0.00000000
  12       0.00035345
  13       0.00009033
  14      -0.00000000
  15      -0.00029025
  16      -0.00007418
  17       0.00000000
  18       8.63850725
  19       2.20774257
  20      -0.00000000
  21      -5.67157528
  22      -1.44948402
  23       0.00000000
  24       0.00000000
  25       0.00000000
  26      -0.03429080
  27      -0.00876370
  28      -0.00000000
  29       0.00000000
  30       0.00000000
  31       0.00000000
  32       0.10369078
  33       0.02650024
  34      -0.00000000
  35      -0.00000000
  36       0.00000000
  37      -0.00000000
  38      -0.00000000
  39       0.00000000
  40      -0.00000000
  41       0.00000000
  42      -0.00000000
  43       0.00000000
  44       0.00000000
  45      -0.00000000
  46      -0.00035345
  47      -0.00009033
  48      -0.00000000
  49       0.00029025
  50       0.00007418
  51      -0.00000000
  52      -8.63850725
  53      -2.20774257
  54       0.00000000
  55       5.67157528
  56       1.44948402
  57      -0.00000000
  58      -0.00000000
  59      -0.00000000
  60      -0.03429080
  61      -0.00876370
  62       0.00000000
  63      -0.00000000
  64      -0.00000000
  65      -0.00000000
  66       0.10369078
  67       0.02650024
  68       0.00000000
Ene=     1.48812E-02
Spin= Alpha
Occup=   0.0000000000
   1       0.50731406
   2       0.90206557
   3      -1.31137513
   4       0.04664536
   5       0.59958360
   6      -0.10863707
   7       0.06129275
   8      -0.02636157
   9       0.00154982
  10      -0.00046533
  11       0.02440616
  12       0.00000000
  13       0.00000000
  14       0.08380719
  15       0.00000000
  16      -0.00000000
  17       7.37774952
  18      -0.00000000
  19      -0.00000000
  20      -4.80297099
  21       0.00000000
  22       0.00000000
  23      -0.10440843
  24      -0.05705508
  25      -0.05705508
  26      -0.00000000
  27       0.00000000
  28      -0.00000000
  29      -0.19286907
  30      -0.34560483
  31      -0.34560483
  32      -0.00000000
  33      -0.00000000
  34       0.00000000
  35       0.50731406
  36       0.90206557
  37      -1.31137513
  38       0.04664536
  39       0.59958360
  40      -0.10863707
  41       0.06129275
  42      -0.02636157
  43       0.00154982
  44      -0.00046533
  45      -0.02440616
  46      -0.00000000
  47      -0.00000000
  48      -0.08380719
  49      -0.00000000
  50       0.00000000
  51      -7.37774952
  52       0.00000000
  53       0.00000000
  54       4.80297099
  55      -0.00000000
  56      -0.00000000
  57      -0.10440843
  58      -0.05705508
  59      -0.05705508
  60       0.00000000
  61       0.00000000
  62       0.00000000
  63      -0.19286907
  64      -0.34560483
  65      -0.34560483
  66       0.00000000
  67       0.00000000
  68      -0.00000000
Ene=     1.88025E-02
Spin= Alpha
Occup=   0.0000000000
   1       0.00301873
   2       0.00035457
   3       0.00047255
   4      -0.01714945
   5       3.46652004
   6       0.13301137
   7       0.19398038
   8      -0.08970284
   9       0.00081040
  10      -0.00104105
  11      -0.12851519
  12       0.00000000
  13      -0.00000000
  14       0.02308421
  15       0.00000000
  16      -0.00000000
  17      -0.29835058
  18       0.00000000
  19       0.00000000
  20       0.81689198
  21      -0.00000000
  22      -0.00000000
  23      -1.25361040
  24      -1.26981553
  25      -1.26981553
  26       0.00000000
  27      -0.00000000
  28       0.00000000
  29      -1.55955491
  30      -1.53878058
  31      -1.53878058
  32      -0.00000000
  33      -0.00000000
  34       0.00000000
  35      -0.00301873
  36      -0.00035457
  37      -0.00047255
  38       0.01714945
  39      -3.46652004
  40      -0.13301137
  41      -0.19398038
  42       0.08970284
  43      -0.00081040
  44       0.00104105
  45      -0.12851519
  46      -0.00000000
  47       0.00000000
  48       0.02308421
  49      -0.00000000
  50       0.00000000
  51      -0.29835058
  52      -0.00000000
  53      -0.00000000
  54       0.81689198
  55       0.00000000
  56       0.00000000
  57       1.25361040
  58       1.26981553
  59       1.26981553
  60       0.00000000
  61      -0.00000000
  62      -0.00000000
  63       1.55955491
  64       1.53878058
  65       1.53878058
  66       0.00000000
  67       0.00000000
  68      -0.00000000
Ene=     2.50696E-02
Spin= Alpha
Occup=   0.0000000000
   1       2.95040114
   2       3.00249090
   3      -3.85849272
   4       1.49264979
   5      -0.10950785
   6      -0.16234005
   7      -0.02245894
   8       0.02938606
   9       0.00506282
  10      -0.00037900
  11       0.13923361
  12       0.00000000
  13       0.00000000
  14       0.30938085
  15       0.00000000
  16      -0.00000000
  17       1.24251925
  18       0.00000000
  19       0.00000000
  20      -0.82120231
  21      -0.00000000
  22       0.00000000
  23      -0.43247570
  24      -0.44847347
  25      -0.44847347
  26       0.00000000
  27      -0.00000000
  28       0.00000000
  29      -1.40345094
  30      -1.40435281
  31      -1.40435281
  32       0.00000000
  33      -0.00000000
  34      -0.00000000
  35       2.95040114
  36       3.00249090
  37      -3.85849272
  38       1.49264979
  39      -0.10950785
  40      -0.16234005
  41      -0.02245894
  42       0.02938606
  43       0.00506282
  44      -0.00037900
  45      -0.13923361
  46      -0.00000000
  47      -0.00000000
  48      -0.30938085
  49      -0.00000000
  50       0.00000000
  51      -1.24251925
  52      -0.00000000
  53      -0.00000000
  54       0.82120231
  55       0.00000000
  56      -0.00000000
  57      -0.43247570
  58      -0.44847347
  59      -0.44847347
  60      -0.00000000
  61       0.00000000
  62      -0.00000000
  63      -1.40345094
  64      -1.40435281
  65      -1.40435281
  66      -0.00000000
  67       0.00000000
  68       0.00000000
Ene=     3.39328E-02
Spin= Alpha
Occup=   0.0000000000
   1      -0.04087702
   2      -0.03565179
   3       0.38799429
   4      -0.93229873
   5       0.78541732
   6       0.38249452
   7       0.02617363
   8      -0.02506663
   9      -0.00394095
  10       0.00027643
  11       1.72901721
  12      -0.00000000
  13       0.00000000
  14       0.47887294
  15      -0.00000000
  16       0.00000000
  17      -1.87665597
  18      -0.00000000
  19      -0.00000000
  20       0.63353838
  21       0.00000000
  22       0.00000000
  23      17.90213195
  24      17.89733478
  25      17.89733478
  26      -0.00000000
  27      -0.00000000
  28       0.00000000
  29      23.77955262
  30      23.75558432
  31      23.75558432
  32       0.00000000
  33       0.00000000
  34      -0.00000000
  35       0.04087702
  36       0.03565179
  37      -0.38799429
  38       0.93229873
  39      -0.78541732
  40      -0.38249452
  41      -0.02617363
  42       0.02506663
  43       0.00394095
  44      -0.00027643
  45       1.72901721
  46       0.00000000
  47      -0.00000000
  48       0.47887294
  49       0.00000000
  50      -0.00000000
  51      -1.87665597
  52       0.00000000
  53      -0.00000000
  54       0.63353838
  55      -0.00000000
  56       0.00000000
  57     -17.90213195
  58     -17.89733478
  59     -17.89733478
  60       0.00000000
  61       0.00000000
  62      -0.00000000
  63     -23.77955262
  64     -23.75558432
  65     -23.75558432
  66      -0.00000000
  67      -0.00000000
  68       0.00000000
Ene=     3.70017E-02
Spin= Alpha
Occup=   0.0000000000
   1      -0.00000000
   2       0.00000000
   3       0.00000000
   4      -0.00000000
   5       0.00000000
   6       0.00000000
   7       0.00000000
   8      -0.00000000
   9      -0.00000000
  10       0.00000000
  11      -0.00000000
  12       0.00000000