[Molden Format]
[Title]
 Molden2AIM, Version 3.1.0 (02/25/2015)           Time: Thu Oct 17 19:53:36 2024

[Atoms] AU
E+       1       4     0.00000000     0.00000000     0.00000000
E+       2       4    21.80000000     0.00000000     0.00000000
[GTO]
    1 0
 S   1 1.0
    0.1000000000D-03      0.1000000000D+01
 S   1 1.0
    0.3000000000D-03      0.1000000000D+01
 S   1 1.0
    0.9000000000D-03      0.1000000000D+01
 S   1 1.0
    0.2700000000D-02      0.1000000000D+01
 S   1 1.0
    0.8100000000D-02      0.1000000000D+01
 S   1 1.0
    0.2430000000D-01      0.1000000000D+01
 S   1 1.0
    0.7290000000D-01      0.1000000000D+01
 S   1 1.0
    0.2187000000D+00      0.1000000000D+01
 S   1 1.0
    0.6561000000D+00      0.1000000000D+01
 S   1 1.0
    0.1968300000D+01      0.1000000000D+01
 P   1 1.0
    0.1000000000D-03      0.1000000000D+01
 P   1 1.0
    0.3000000000D-03      0.1000000000D+01
 P   1 1.0
    0.9000000000D-03      0.1000000000D+01
 P   1 1.0
    0.2700000000D-02      0.1000000000D+01
 D   1 1.0
    0.1000000000D-03      0.1000000000D+01
 D   1 1.0
    0.3000000000D-03      0.1000000000D+01

    2 0
 S   1 1.0
    0.1000000000D-03      0.1000000000D+01
 S   1 1.0
    0.3000000000D-03      0.1000000000D+01
 S   1 1.0
    0.9000000000D-03      0.1000000000D+01
 S   1 1.0
    0.2700000000D-02      0.1000000000D+01
 S   1 1.0
    0.8100000000D-02      0.1000000000D+01
 S   1 1.0
    0.2430000000D-01      0.1000000000D+01
 S   1 1.0
    0.7290000000D-01      0.1000000000D+01
 S   1 1.0
    0.2187000000D+00      0.1000000000D+01
 S   1 1.0
    0.6561000000D+00      0.1000000000D+01
 S   1 1.0
    0.1968300000D+01      0.1000000000D+01
 P   1 1.0
    0.1000000000D-03      0.1000000000D+01
 P   1 1.0
    0.3000000000D-03      0.1000000000D+01
 P   1 1.0
    0.9000000000D-03      0.1000000000D+01
 P   1 1.0
    0.2700000000D-02      0.1000000000D+01
 D   1 1.0
    0.1000000000D-03      0.1000000000D+01
 D   1 1.0
    0.3000000000D-03      0.1000000000D+01


[MO]
 Ene=         -0.00386721
 Spin= Alpha
 Occup=        1.00000000
    1       -0.0371234800
    2        0.0437143900
    3       -0.0380686000
    4       -0.2368360000
    5       -0.2132724400
    6       -0.1859801900
    7       -0.1106614600
    8        0.0907493400
    9        0.0063649900
   10       -0.0001129300
   11        0.1749608300
   12        0.0000000000
   13        0.0000000000
   14       -0.0886551000
   15       -0.0000000000
   16       -0.0000000000
   17        0.0034197000
   18        0.0000000000
   19        0.0000000000
   20       -0.0166112700
   21       -0.0000000000
   22       -0.0000000000
   23        0.0335361700
   24       -0.0001411400
   25       -0.0001411400
   26        0.0000000000
   27        0.0000000000
   28        0.0000000000
   29       -0.0309881200
   30       -0.0021922900
   31       -0.0021922900
   32       -0.0000000000
   33       -0.0000000000
   34       -0.0000000000
   35       -0.0371234800
   36        0.0437143900
   37       -0.0380686000
   38       -0.2368360000
   39       -0.2132724400
   40       -0.1859801900
   41       -0.1106614600
   42        0.0907493400
   43        0.0063649900
   44       -0.0001129300
   45       -0.1749608300
   46       -0.0000000000
   47       -0.0000000000
   48        0.0886551000
   49        0.0000000000
   50        0.0000000000
   51       -0.0034197000
   52       -0.0000000000
   53       -0.0000000000
   54        0.0166112700
   55        0.0000000000
   56        0.0000000000
   57        0.0335361700
   58       -0.0001411400
   59       -0.0001411400
   60        0.0000000000
   61        0.0000000000
   62       -0.0000000000
   63       -0.0309881200
   64       -0.0021922900
   65       -0.0021922900
   66       -0.0000000000
   67       -0.0000000000
   68        0.0000000000
 Ene=         -0.00114580
 Spin= Alpha
 Occup=        0.00000000
    1       -0.0006340300
    2        0.0015178200
    3        0.5828004000
    4        0.3135841200
    5        0.2553213900
    6        0.2086286800
    7        0.1170644800
    8       -0.0970053700
    9       -0.0070299600
   10        0.0001495000
   11        0.0053322000
   12       -0.0000000000
   13        0.0000000000
   14       -0.0050013200
   15        0.0000000000
   16       -0.0000000000
   17        0.1751058000
   18       -0.0000000000
   19        0.0000000000
   20       -0.0737499000
   21        0.0000000000
   22       -0.0000000000
   23        0.0038273700
   24        0.0140411100
   25        0.0140411100
   26       -0.0000000000
   27        0.0000000000
   28       -0.0000000000
   29        0.0157556800
   30       -0.0003439100
   31       -0.0003439100
   32        0.0000000000
   33       -0.0000000000
   34       -0.0000000000
   35        0.0006340300
   36       -0.0015178200
   37       -0.5828004000
   38       -0.3135841200
   39       -0.2553213900
   40       -0.2086286800
   41       -0.1170644800
   42        0.0970053700
   43        0.0070299600
   44       -0.0001495000
   45        0.0053322000
   46        0.0000000000
   47       -0.0000000000
   48       -0.0050013200
   49       -0.0000000000
   50        0.0000000000
   51        0.1751058000
   52        0.0000000000
   53       -0.0000000000
   54       -0.0737499000
   55       -0.0000000000
   56        0.0000000000
   57       -0.0038273700
   58       -0.0140411100
   59       -0.0140411100
   60       -0.0000000000
   61        0.0000000000
   62       -0.0000000000
   63       -0.0157556800
   64        0.0003439100
   65        0.0003439100
   66        0.0000000000
   67       -0.0000000000
   68        0.0000000000
 Ene=          0.00350420
 Spin= Alpha
 Occup=        0.00000000
    1        0.9208922500
    2       -0.1594262300
    3       -1.1521981400
    4        0.8490985100
    5       -0.0556800300
    6        0.1189626700
    7        0.0256986300
    8       -0.0288598700
    9       -0.0033916200
   10        0.0002284500
   11       -3.6037755900
   12        0.0000000000
   13        0.0000000000
   14        1.2157093900
   15       -0.0000000000
   16        0.0000000000
   17       -0.4627822200
   18        0.0000000000
   19        0.0000000000
   20        0.1000105600
   21       -0.0000000000
   22       -0.0000000000
   23       -0.7047031100
   24       -0.0188999600
   25       -0.0188999600
   26        0.0000000000
   27        0.0000000000
   28       -0.0000000000
   29        0.2851572000
   30       -0.0774988800
   31       -0.0774988800
   32       -0.0000000000
   33        0.0000000000
   34        0.0000000000
   35        0.9208922500
   36       -0.1594262300
   37       -1.1521981400
   38        0.8490985100
   39       -0.0556800300
   40        0.1189626700
   41        0.0256986300
   42       -0.0288598700
   43       -0.0033916200
   44        0.0002284500
   45        3.6037755900
   46       -0.0000000000
   47       -0.0000000000
   48       -1.2157093900
   49        0.0000000000
   50       -0.0000000000
   51        0.4627822200
   52       -0.0000000000
   53       -0.0000000000
   54       -0.1000105600
   55        0.0000000000
   56        0.0000000000
   57       -0.7047031100
   58       -0.0188999600
   59       -0.0188999600
   60        0.0000000000
   61        0.0000000000
   62        0.0000000000
   63        0.2851572000
   64       -0.0774988800
   65       -0.0774988800
   66       -0.0000000000
   67        0.0000000000
   68       -0.0000000000
 Ene=          0.00410654
 Spin= Alpha
 Occup=        0.00000000
    1       -0.0000000000
    2        0.0000000000
    3        0.0000000000
    4       -0.0000000000
    5       -0.0000000000
    6       -0.0000000000
    7       -0.0000000000
    8        0.0000000000
    9        0.0000000000
   10       -0.0000000000
   11        0.0000000000
   12       -0.0199909100
   13       -0.0219868400
   14       -0.0000000000
   15        0.0779187100
   16        0.0856982800
   17        0.0000000000
   18       -0.3264125600
   19       -0.3590023000
   20       -0.0000000000
   21       -0.0989810300
   22       -0.1088635100
   23        0.0000000000
   24       -0.0000000000
   25        0.0000000000
   26       -0.0329336800
   27       -0.0362218400
   28       -0.0000000000
   29       -0.0000000000
   30       -0.0000000000
   31       -0.0000000000
   32        0.0059691400
   33        0.0065651100
   34        0.0000000000
   35       -0.0000000000
   36        0.0000000000
   37       -0.0000000000
   38        0.0000000000
   39       -0.0000000000
   40       -0.0000000000
   41        0.0000000000
   42       -0.0000000000
   43       -0.0000000000
   44        0.0000000000
   45       -0.0000000000
   46       -0.0199909100
   47       -0.0219868400
   48        0.0000000000
   49        0.0779187100
   50        0.0856982800
   51       -0.0000000000
   52       -0.3264125600
   53       -0.3590023000
   54        0.0000000000
   55       -0.0989810300
   56       -0.1088635100
   57        0.0000000000
   58       -0.0000000000
   59       -0.0000000000
   60        0.0329336800
   61        0.0362218500
   62        0.0000000000
   63       -0.0000000000
   64       -0.0000000000
   65       -0.0000000000
   66       -0.0059691400
   67       -0.0065651100
   68       -0.0000000000
 Ene=          0.00410654
 Spin= Alpha
 Occup=        0.00000000
    1        0.0000000000
    2       -0.0000000000
    3        0.0000000000
    4       -0.0000000000
    5       -0.0000000000
    6        0.0000000000
    7       -0.0000000000
    8        0.0000000000
    9       -0.0000000000
   10        0.0000000000
   11       -0.0000000000
   12        0.0219868400
   13       -0.0199909100
   14        0.0000000000
   15       -0.0856982800
   16        0.0779187100
   17        0.0000000000
   18        0.3590023000
   19       -0.3264125600
   20        0.0000000000
   21        0.1088635100
   22       -0.0989810300
   23       -0.0000000000
   24        0.0000000000
   25        0.0000000000
   26        0.0362218500
   27       -0.0329336800
   28        0.0000000000
   29        0.0000000000
   30        0.0000000000
   31        0.0000000000
   32       -0.0065651100
   33        0.0059691400
   34       -0.0000000000
   35        0.0000000000
   36       -0.0000000000
   37       -0.0000000000
   38        0.0000000000
   39       -0.0000000000
   40        0.0000000000
   41       -0.0000000000
   42       -0.0000000000
   43        0.0000000000
   44       -0.0000000000
   45        0.0000000000
   46        0.0219868400
   47       -0.0199909100
   48       -0.0000000000
   49       -0.0856982800
   50        0.0779187100
   51        0.0000000000
   52        0.3590023000
   53       -0.3264125600
   54        0.0000000000
   55        0.1088635100
   56       -0.0989810300
   57       -0.0000000000
   58       -0.0000000000
   59       -0.0000000000
   60       -0.0362218500
   61        0.0329336800
   62       -0.0000000000
   63       -0.0000000000
   64        0.0000000000
   65        0.0000000000
   66        0.0065651100
   67       -0.0059691400
   68        0.0000000000
 Ene=          0.00592796
 Spin= Alpha
 Occup=        0.00000000
    1       -0.0147367900
    2       -0.0031713400
    3        6.6695515200
    4       -0.4800245600
    5       -0.3290850800
    6       -0.0695546600
    7       -0.0747014100
    8        0.0548090900
    9        0.0028215400
   10        0.0000857300
   11        0.1216526300
   12       -0.0000000000
   13        0.0000000000
   14        0.0246294800
   15        0.0000000000
   16       -0.0000000000
   17        1.6730463500
   18       -0.0000000000
   19        0.0000000000
   20       -0.2278218100
   21       -0.0000000000
   22        0.0000000000
   23        0.1651218400
   24        0.2515299500
   25        0.2515299500
   26       -0.0000000000
   27        0.0000000000
   28       -0.0000000000
   29        0.4005679200
   30        0.2508300400
   31        0.2508300400
   32        0.0000000000
   33       -0.0000000000
   34        0.0000000000
   35        0.0147367900
   36        0.0031713400
   37       -6.6695515200
   38        0.4800245600
   39        0.3290850800
   40        0.0695546600
   41        0.0747014100
   42       -0.0548090900
   43       -0.0028215400
   44       -0.0000857300
   45        0.1216526300
   46        0.0000000000
   47       -0.0000000000
   48        0.0246294800
   49       -0.0000000000
   50        0.0000000000
   51        1.6730463500
   52        0.0000000000
   53       -0.0000000000
   54       -0.2278218100
   55       -0.0000000000
   56       -0.0000000000
   57       -0.1651218400
   58       -0.2515299500
   59       -0.2515299500
   60       -0.0000000000
   61        0.0000000000
   62        0.0000000000
   63       -0.4005679200
   64       -0.2508300400
   65       -0.2508300400
   66        0.0000000000
   67       -0.0000000000
   68       -0.0000000000
 Ene=          0.00678956
 Spin= Alpha
 Occup=        0.00000000
    1       -1.3168335300
    2        0.8382002200
    3        0.0509354800
    4       -0.7939600000
    5        0.2706809800
    6       -0.0402349400
    7        0.0260790800
    8       -0.0128941900
    9        0.0004795700
   10       -0.0001832500
   11        6.6522300400
   12       -0.0000000000
   13       -0.0000000000
   14       -1.8854296100
   15        0.0000000000
   16        0.0000000000
   17        0.5892004900
   18       -0.0000000000
   19       -0.0000000000
   20        0.5389176600
   21       -0.0000000000
   22       -0.0000000000
   23        1.2486698500
   24       -0.0196082200
   25       -0.0196082200
   26       -0.0000000000
   27       -0.0000000000
   28       -0.0000000000
   29       -0.6472565700
   30       -0.0830016100
   31       -0.0830016100
   32        0.0000000000
   33        0.0000000000
   34        0.0000000000
   35       -1.3168335300
   36        0.8382002200
   37        0.0509354800
   38       -0.7939600000
   39        0.2706809800
   40       -0.0402349400
   41        0.0260790800
   42       -0.0128941900
   43        0.0004795700
   44       -0.0001832500
   45       -6.6522300400
   46        0.0000000000
   47        0.0000000000
   48        1.8854296100
   49       -0.0000000000
   50       -0.0000000000
   51       -0.5892004900
   52        0.0000000000
   53        0.0000000000
   54       -0.5389176600
   55        0.0000000000
   56        0.0000000000
   57        1.2486698500
   58       -0.0196082200
   59       -0.0196082200
   60       -0.0000000000
   61       -0.0000000000
   62        0.0000000000
   63       -0.6472565700
   64       -0.0830016100
   65       -0.0830016100
   66        0.0000000000
   67        0.0000000000
   68       -0.0000000000
 Ene=          0.00709756
 Spin= Alpha
 Occup=        0.00000000
    1       -0.0000000000
    2        0.0000000000
    3       -0.0000000000
    4        0.0000000000
    5       -0.0000000000
    6        0.0000000000
    7       -0.0000000000
    8        0.0000000000
    9        0.0000000000
   10       -0.0000000000
   11        0.0000000000
   12       -5.2139262300
   13      -13.8986716900
   14        0.0000000000
   15        1.1597869900
   16        3.0916238300
   17       -0.0000000000
   18       -0.3185252900
   19       -0.8490872900
   20       -0.0000000000
   21       -0.2220146200
   22       -0.5918204700
   23        0.0000000000
   24        0.0000000000
   25        0.0000000000
   26       -0.5673443200
   27       -1.5123598000
   28        0.0000000000
   29        0.0000000000
   30        0.0000000000
   31        0.0000000000
   32        0.1966111500
   33        0.5241028900
   34       -0.0000000000
   35        0.0000000000
   36       -0.0000000000
   37        0.0000000000
   38        0.0000000000
   39        0.0000000000
   40       -0.0000000000
   41        0.0000000000
   42       -0.0000000000
   43        0.0000000000
   44       -0.0000000000
   45       -0.0000000000
   46        5.2139262300
   47       13.8986716900
   48        0.0000000000
   49       -1.1597869900
   50       -3.0916238300
   51       -0.0000000000
   52        0.3185252900
   53        0.8490872900
   54        0.0000000000
   55        0.2220146200
   56        0.5918204700
   57        0.0000000000
   58       -0.0000000000
   59       -0.0000000000
   60       -0.5673443200
   61       -1.5123598000
   62       -0.0000000000
   63       -0.0000000000
   64       -0.0000000000
   65       -0.0000000000
   66        0.1966111500
   67        0.5241028900
   68        0.0000000000
 Ene=          0.00709756
 Spin= Alpha
 Occup=        0.00000000
    1       -0.0000000000
    2        0.0000000000
    3       -0.0000000000
    4       -0.0000000000
    5        0.0000000000
    6       -0.0000000000
    7        0.0000000000
    8       -0.0000000000
    9       -0.0000000000
   10        0.0000000000
   11       -0.0000000000
   12       13.8986716900
   13       -5.2139262300
   14        0.0000000000
   15       -3.0916238300
   16        1.1597869900
   17       -0.0000000000
   18        0.8490872900
   19       -0.3185252900
   20        0.0000000000
   21        0.5918204700
   22       -0.2220146200
   23       -0.0000000000
   24        0.0000000000
   25        0.0000000000
   26        1.5123598000
   27       -0.5673443200
   28        0.0000000000
   29        0.0000000000
   30        0.0000000000
   31        0.0000000000
   32       -0.5241028900
   33        0.1966111500
   34       -0.0000000000
   35        0.0000000000
   36       -0.0000000000
   37        0.0000000000
   38       -0.0000000000
   39        0.0000000000
   40       -0.0000000000
   41        0.0000000000
   42       -0.0000000000
   43        0.0000000000
   44       -0.0000000000
   45        0.0000000000
   46      -13.8986716900
   47        5.2139262300
   48        0.0000000000
   49        3.0916238300
   50       -1.1597869900
   51       -0.0000000000
   52       -0.8490872900
   53        0.3185252900
   54       -0.0000000000
   55       -0.5918204700
   56        0.2220146200
   57       -0.0000000000
   58       -0.0000000000
   59       -0.0000000000
   60        1.5123598000
   61       -0.5673443200
   62       -0.0000000000
   63       -0.0000000000
   64       -0.0000000000
   65       -0.0000000000
   66       -0.5241028900
   67        0.1966111500
   68        0.0000000000
 Ene=          0.01044480
 Spin= Alpha
 Occup=        0.00000000
    1       -0.0000000000
    2       -0.0000000000
    3       -0.0000000000
    4       -0.0000000000
    5       -0.0000000000
    6       -0.0000000000
    7       -0.0000000000
    8        0.0000000000
    9        0.0000000000
   10       -0.0000000000
   11        0.0000000000
   12        0.0030775300
   13        0.0414014700
   14        0.0000000000
   15       -0.0119464000
   16       -0.1607128200
   17       -0.0000000000
   18        0.0589242800
   19        0.7926981400
   20       -0.0000000000
   21       -0.0643082400
   22       -0.8651277000
   23        0.0000000000
   24       -0.0000000000
   25       -0.0000000000
   26        0.0039251200
   27        0.0528040200
   28       -0.0000000000
   29        0.0000000000
   30        0.0000000000
   31        0.0000000000
   32        0.0002494600
   33        0.0033559600
   34        0.0000000000
   35       -0.0000000000
   36       -0.0000000000
   37        0.0000000000
   38        0.0000000000
   39        0.0000000000
   40        0.0000000000
   41        0.0000000000
   42       -0.0000000000
   43        0.0000000000
   44       -0.0000000000
   45       -0.0000000000
   46        0.0030775300
   47        0.0414014700
   48       -0.0000000000
   49       -0.0119464000
   50       -0.1607128200
   51       -0.0000000000
   52        0.0589242800
   53        0.7926981400
   54       -0.0000000000
   55       -0.0643082400
   56       -0.8651277000
   57        0.0000000000
   58        0.0000000000
   59        0.0000000000
   60       -0.0039251200
   61       -0.0528040200
   62        0.0000000000
   63        0.0000000000
   64       -0.0000000000
   65       -0.0000000000
   66       -0.0002494600
   67       -0.0033559600
   68       -0.0000000000
 Ene=          0.01044480
 Spin= Alpha
 Occup=        0.00000000
    1        0.0000000000
    2        0.0000000000
    3       -0.0000000000
    4       -0.0000000000
    5       -0.0000000000
    6       -0.0000000000
    7       -0.0000000000
    8        0.0000000000
    9        0.0000000000
   10        0.0000000000
   11       -0.0000000000
   12       -0.0414014700
   13        0.0030775300
   14       -0.0000000000
   15        0.1607128200
   16       -0.0119464000
   17       -0.0000000000
   18       -0.7926981400
   19        0.0589242800
   20       -0.0000000000
   21        0.8651277000
   22       -0.0643082400
   23       -0.0000000000
   24       -0.0000000000
   25       -0.0000000000
   26       -0.0528040200
   27        0.0039251200
   28        0.0000000000
   29       -0.0000000000
   30        0.0000000000
   31        0.0000000000
   32       -0.0033559600
   33        0.0002494600
   34       -0.0000000000
   35        0.0000000000
   36        0.0000000000
   37        0.0000000000
   38        0.0000000000
   39        0.0000000000
   40        0.0000000000
   41        0.0000000000
   42       -0.0000000000
   43       -0.0000000000
   44        0.0000000000
   45        0.0000000000
   46       -0.0414014700
   47        0.0030775300
   48        0.0000000000
   49        0.1607128200
   50       -0.0119464000
   51       -0.0000000000
   52       -0.7926981400
   53        0.0589242800
   54       -0.0000000000
   55        0.8651277000
   56       -0.0643082400
   57       -0.0000000000
   58        0.0000000000
   59        0.0000000000
   60        0.0528040200
   61       -0.0039251200
   62       -0.0000000000
   63        0.0000000000
   64       -0.0000000000
   65       -0.0000000000
   66        0.0033559600
   67       -0.0002494600
   68        0.0000000000
 Ene=          0.01057990
 Spin= Alpha
 Occup=        0.00000000
    1       -0.0070665400
    2        0.0411951000
    3       12.9721381800
    4        1.2192561200
    5        0.0237973900
    6        0.0458506300
    7        0.0167582100
    8       -0.0155084900
    9       -0.0014284500
   10        0.0000646300
   11        0.0599815000
   12        0.0000000000
   13        0.0000000000
   14       -0.1254003100
   15       -0.0000000000
   16       -0.0000000000
   17        3.9678829400
   18        0.0000000000
   19        0.0000000000
   20        2.1068945500
   21       -0.0000000000
   22       -0.0000000000
   23       -0.0039844500
   24        0.1991058400
   25        0.1991058400
   26        0.0000000000
   27        0.0000000000
   28       -0.0000000000
   29        0.1645102600
   30       -0.1446876100
   31       -0.1446876100
   32       -0.0000000000
   33       -0.0000000000
   34       -0.0000000000
   35        0.0070665400
   36       -0.0411951000
   37      -12.9721381800
   38       -1.2192561200
   39       -0.0237973900
   40       -0.0458506300
   41       -0.0167582100
   42        0.0155084900
   43        0.0014284500
   44       -0.0000646300
   45        0.0599815000
   46       -0.0000000000
   47       -0.0000000000
   48       -0.1254003100
   49        0.0000000000
   50        0.0000000000
   51        3.9678829400
   52       -0.0000000000
   53        0.0000000000
   54        2.1068945500
   55        0.0000000000
   56       -0.0000000000
   57        0.0039844500
   58       -0.1991058400
   59       -0.1991058400
   60        0.0000000000
   61        0.0000000000
   62        0.0000000000
   63       -0.1645102600
   64        0.1446876100
   65        0.1446876100
   66       -0.0000000000
   67       -0.0000000000
   68        0.0000000000
 Ene=          0.01320860
 Spin= Alpha
 Occup=        0.00000000
    1       -0.6460906100
    2        0.5778090500
    3        0.0534165300
    4       -1.5431104400
    5        1.2888702800
    6       -0.0905307000
    7        0.1419048100
    8       -0.0813931000
    9       -0.0000899500
   10       -0.0007173300
   11        5.1597391700
   12       -0.0000000000
   13       -0.0000000000
   14       -0.4944109900
   15        0.0000000000
   16        0.0000000000
   17        0.5986338600
   18       -0.0000000000
   19       -0.0000000000
   20       -0.3605424900
   21        0.0000000000
   22        0.0000000000
   23        0.9092607000
   24       -0.0704913900
   25       -0.0704913900
   26       -0.0000000000
   27       -0.0000000000
   28       -0.0000000000
   29       -0.3430963700
   30       -0.2348532500
   31       -0.2348532500
   32        0.0000000000
   33        0.0000000000
   34        0.0000000000
   35       -0.6460906100
   36        0.5778090500
   37        0.0534165300
   38       -1.5431104400
   39        1.2888702800
   40       -0.0905307000
   41        0.1419048100
   42       -0.0813931000
   43       -0.0000899500
   44       -0.0007173300
   45       -5.1597391700
   46        0.0000000000
   47        0.0000000000
   48        0.4944109900
   49       -0.0000000000
   50       -0.0000000000
   51       -0.5986338600
   52        0.0000000000
   53        0.0000000000
   54        0.3605424900
   55       -0.0000000000
   56       -0.0000000000
   57        0.9092607000
   58       -0.0704913900
   59       -0.0704913900
   60       -0.0000000000
   61       -0.0000000000
   62        0.0000000000
   63       -0.3430963700
   64       -0.2348532500
   65       -0.2348532500
   66        0.0000000000
   67        0.0000000000
   68       -0.0000000000
 Ene=          0.01563700
 Spin= Alpha
 Occup=        0.00000000
    1        0.0000000000
    2        0.0000000000
    3        0.0000000000
    4       -0.0000000000
    5        0.0000000000
    6       -0.0000000000
    7        0.0000000000
    8       -0.0000000000
    9        0.0000000000
   10       -0.0000000000
   11       -0.0000000000
   12       11.8745097900
   13       28.9919668300
   14        0.0000000000
   15       -2.5091255900
   16       -6.1261043500
   17       -0.0000000000
   18        0.9002256200
   19        2.1979274800
   20       -0.0000000000
   21       -0.4702640800
   22       -1.1481636700
   23       -0.0000000000
   24        0.0000000000
   25        0.0000000000
   26        1.2915609500
   27        3.1533842600
   28       -0.0000000000
   29        0.0000000000
   30        0.0000000000
   31        0.0000000000
   32       -0.4196643600
   33       -1.0246229500
   34        0.0000000000
   35       -0.0000000000
   36       -0.0000000000
   37        0.0000000000
   38        0.0000000000
   39       -0.0000000000
   40        0.0000000000
   41       -0.0000000000
   42        0.0000000000
   43       -0.0000000000
   44        0.0000000000
   45        0.0000000000
   46      -11.8745097900
   47      -28.9919668300
   48       -0.0000000000
   49        2.5091255900
   50        6.1261043500
   51        0.0000000000
   52       -0.9002256200
   53       -2.1979274800
   54       -0.0000000000
   55        0.4702640800
   56        1.1481636700
   57       -0.0000000000
   58        0.0000000000
   59        0.0000000000
   60        1.2915609500
   61        3.1533842600
   62        0.0000000000
   63        0.0000000000
   64        0.0000000000
   65        0.0000000000
   66       -0.4196643600
   67       -1.0246229500
   68       -0.0000000000
 Ene=          0.01563700
 Spin= Alpha
 Occup=        0.00000000
    1        0.0000000000
    2       -0.0000000000
    3       -0.0000000000
    4        0.0000000000
    5        0.0000000000
    6       -0.0000000000
    7        0.0000000000
    8       -0.0000000000
    9        0.0000000000
   10       -0.0000000000
   11        0.0000000000
   12      -28.9919668300
   13       11.8745097900
   14       -0.0000000000
   15        6.1261043500
   16       -2.5091255900
   17        0.0000000000
   18       -2.1979274800
   19        0.9002256200
   20       -0.0000000000
   21        1.1481636700
   22       -0.4702640800
   23        0.0000000000
   24       -0.0000000000
   25       -0.0000000000
   26       -3.1533842600
   27        1.2915609500
   28       -0.0000000000
   29       -0.0000000000
   30       -0.0000000000
   31       -0.0000000000
   32        1.0246229500
   33       -0.4196643600
   34        0.0000000000
   35       -0.0000000000
   36        0.0000000000
   37       -0.0000000000
   38        0.0000000000
   39       -0.0000000000
   40        0.0000000000
   41       -0.0000000000
   42        0.0000000000
   43       -0.0000000000
   44        0.0000000000
   45       -0.0000000000
   46       28.9919668300
   47      -11.8745097900
   48       -0.0000000000
   49       -6.1261043500
   50        2.5091255900
   51       -0.0000000000
   52        2.1979274800
   53       -0.9002256200
   54        0.0000000000
   55       -1.1481636700
   56        0.4702640800
   57        0.0000000000
   58        0.0000000000
   59        0.0000000000
   60       -3.1533842600
   61        1.2915609500
   62        0.0000000000
   63        0.0000000000
   64       -0.0000000000
   65       -0.0000000000
   66        1.0246229500
   67       -0.4196643600
   68       -0.0000000000
 Ene=          0.01576660
 Spin= Alpha
 Occup=        0.00000000
    1       -0.0164793500
    2       -0.0557288700
    3        0.4957307000
    4       -3.5672192400
    5        1.3032685400
    6       -0.1106990100
    7        0.1207571600
    8       -0.0660334400
    9        0.0006218200
   10       -0.0006817000
   11        0.1335639200
   12       -0.0000000000
   13        0.0000000000
   14        0.2302693200
   15       -0.0000000000
   16        0.0000000000