[Molden Format]
[Atoms] AU
E+       1       4     0.00000000     0.00000000     0.00000000
E+       2       4    13.20000000     0.00000000     0.00000000
[GTO]
  1 0
s  1 1.00
   1.0000000000E-04   1.0000000000E+00
s  1 1.00
   3.0000000000E-04   1.0000000000E+00
s  1 1.00
   9.0000000000E-04   1.0000000000E+00
s  1 1.00
   2.7000000000E-03   1.0000000000E+00
s  1 1.00
   8.1000000000E-03   1.0000000000E+00
s  1 1.00
   2.4300000000E-02   1.0000000000E+00
s  1 1.00
   7.2900000000E-02   1.0000000000E+00
s  1 1.00
   2.1870000000E-01   1.0000000000E+00
s  1 1.00
   6.5610000000E-01   1.0000000000E+00
s  1 1.00
   1.9683000000E+00   1.0000000000E+00
p  1 1.00
   1.0000000000E-04   1.0000000000E+00
p  1 1.00
   3.0000000000E-04   1.0000000000E+00
p  1 1.00
   9.0000000000E-04   1.0000000000E+00
p  1 1.00
   2.7000000000E-03   1.0000000000E+00
d  1 1.00
   1.0000000000E-04   1.0000000000E+00
d  1 1.00
   3.0000000000E-04   1.0000000000E+00
 
  2 0
s  1 1.00
   1.0000000000E-04   1.0000000000E+00
s  1 1.00
   3.0000000000E-04   1.0000000000E+00
s  1 1.00
   9.0000000000E-04   1.0000000000E+00
s  1 1.00
   2.7000000000E-03   1.0000000000E+00
s  1 1.00
   8.1000000000E-03   1.0000000000E+00
s  1 1.00
   2.4300000000E-02   1.0000000000E+00
s  1 1.00
   7.2900000000E-02   1.0000000000E+00
s  1 1.00
   2.1870000000E-01   1.0000000000E+00
s  1 1.00
   6.5610000000E-01   1.0000000000E+00
s  1 1.00
   1.9683000000E+00   1.0000000000E+00
p  1 1.00
   1.0000000000E-04   1.0000000000E+00
p  1 1.00
   3.0000000000E-04   1.0000000000E+00
p  1 1.00
   9.0000000000E-04   1.0000000000E+00
p  1 1.00
   2.7000000000E-03   1.0000000000E+00
d  1 1.00
   1.0000000000E-04   1.0000000000E+00
d  1 1.00
   3.0000000000E-04   1.0000000000E+00
 
 
[MO]
Ene=    -7.15879E-03
Spin= Alpha
Occup=   1.0000000000
   1      -0.01073152
   2      -0.10395189
   3       0.03666582
   4       0.11550496
   5       0.25365311
   6       0.21299133
   7       0.12084959
   8      -0.10148387
   9      -0.00757213
  10       0.00019488
  11      -0.00536630
  12       0.00000000
  13       0.00000000
  14       0.37532714
  15      -0.00000000
  16       0.00000000
  17      -0.02230844
  18       0.00000000
  19      -0.00000000
  20       0.02979018
  21      -0.00000000
  22       0.00000000
  23       0.00105841
  24       0.00152234
  25       0.00152234
  26       0.00000000
  27       0.00000000
  28      -0.00000000
  29       0.08060872
  30       0.00688288
  31       0.00688288
  32      -0.00000000
  33       0.00000000
  34      -0.00000000
  35      -0.01073152
  36      -0.10395189
  37       0.03666582
  38       0.11550496
  39       0.25365311
  40       0.21299133
  41       0.12084959
  42      -0.10148387
  43      -0.00757213
  44       0.00019488
  45       0.00536630
  46      -0.00000000
  47      -0.00000000
  48      -0.37532714
  49       0.00000000
  50      -0.00000000
  51       0.02230844
  52      -0.00000000
  53       0.00000000
  54      -0.02979018
  55       0.00000000
  56      -0.00000000
  57       0.00105841
  58       0.00152234
  59       0.00152234
  60       0.00000000
  61       0.00000000
  62       0.00000000
  63       0.08060872
  64       0.00688288
  65       0.00688288
  66      -0.00000000
  67       0.00000000
  68       0.00000000
Ene=     8.90674E-04
Spin= Alpha
Occup=   0.0000000000
   1       0.00312374
   2       0.00152284
   3      -4.69686220
   4       0.19193438
   5      -0.39364679
   6      -0.16514444
   7      -0.10838799
   8       0.08760168
   9       0.00600722
  10      -0.00008196
  11      -0.04201557
  12       0.00000000
  13      -0.00000000
  14      -0.01922504
  15      -0.00000000
  16      -0.00000000
  17      -0.76520610
  18       0.00000000
  19      -0.00000000
  20       0.22710743
  21      -0.00000000
  22       0.00000000
  23      -0.10412575
  24      -0.13264338
  25      -0.13264338
  26       0.00000000
  27      -0.00000000
  28       0.00000000
  29      -0.22608215
  30      -0.17874387
  31      -0.17874387
  32      -0.00000000
  33      -0.00000000
  34       0.00000000
  35      -0.00312374
  36      -0.00152284
  37       4.69686220
  38      -0.19193438
  39       0.39364679
  40       0.16514444
  41       0.10838799
  42      -0.08760168
  43      -0.00600722
  44       0.00008196
  45      -0.04201557
  46      -0.00000000
  47       0.00000000
  48      -0.01922504
  49       0.00000000
  50       0.00000000
  51      -0.76520610
  52      -0.00000000
  53       0.00000000
  54       0.22710743
  55       0.00000000
  56      -0.00000000
  57       0.10412575
  58       0.13264338
  59       0.13264338
  60       0.00000000
  61      -0.00000000
  62      -0.00000000
  63       0.22608215
  64       0.17874387
  65       0.17874387
  66      -0.00000000
  67      -0.00000000
  68      -0.00000000
Ene=     2.73174E-03
Spin= Alpha
Occup=   0.0000000000
   1      -0.16398246
   2       0.03106298
   3       1.19525234
   4      -0.73752966
   5       0.11810642
   6      -0.11752472
   7      -0.00932370
   8       0.01852980
   9       0.00316627
  10      -0.00028765
  11      -0.00756928
  12      -0.00000000
  13      -0.00000000
  14      -1.59480437
  15       0.00000000
  16      -0.00000000
  17       0.25425342
  18      -0.00000000
  19      -0.00000000
  20      -0.04301178
  21       0.00000000
  22      -0.00000000
  23       0.02114166
  24       0.02355448
  25       0.02355448
  26      -0.00000000
  27      -0.00000000
  28       0.00000000
  29      -0.20676541
  30       0.10188267
  31       0.10188267
  32       0.00000000
  33      -0.00000000
  34       0.00000000
  35      -0.16398246
  36       0.03106298
  37       1.19525234
  38      -0.73752966
  39       0.11810642
  40      -0.11752472
  41      -0.00932370
  42       0.01852980
  43       0.00316627
  44      -0.00028765
  45       0.00756928
  46       0.00000000
  47       0.00000000
  48       1.59480437
  49      -0.00000000
  50       0.00000000
  51      -0.25425342
  52       0.00000000
  53      -0.00000000
  54       0.04301178
  55      -0.00000000
  56       0.00000000
  57       0.02114166
  58       0.02355448
  59       0.02355448
  60      -0.00000000
  61      -0.00000000
  62      -0.00000000
  63      -0.20676541
  64       0.10188267
  65       0.10188267
  66       0.00000000
  67      -0.00000000
  68      -0.00000000
Ene=     3.63878E-03
Spin= Alpha
Occup=   0.0000000000
   1       0.00000000
   2      -0.00000000
   3       0.00000000
   4       0.00000000
   5       0.00000000
   6       0.00000000
   7       0.00000000
   8      -0.00000000
   9      -0.00000000
  10      -0.00000000
  11       0.00000000
  12       0.00000451
  13      -0.02837902
  14       0.00000000
  15      -0.00001917
  16       0.12067961
  17       0.00000000
  18       0.00008780
  19      -0.55266443
  20       0.00000000
  21       0.00000708
  22      -0.04455736
  23       0.00000000
  24       0.00000000
  25       0.00000000
  26       0.00001842
  27      -0.11592399
  28      -0.00000000
  29       0.00000000
  30      -0.00000000
  31      -0.00000000
  32      -0.00000916
  33       0.05768481
  34      -0.00000000
  35       0.00000000
  36      -0.00000000
  37      -0.00000000
  38       0.00000000
  39      -0.00000000
  40       0.00000000
  41       0.00000000
  42      -0.00000000
  43      -0.00000000
  44       0.00000000
  45       0.00000000
  46       0.00000451
  47      -0.02837902
  48      -0.00000000
  49      -0.00001917
  50       0.12067961
  51       0.00000000
  52       0.00008780
  53      -0.55266443
  54      -0.00000000
  55       0.00000708
  56      -0.04455736
  57      -0.00000000
  58      -0.00000000
  59      -0.00000000
  60      -0.00001842
  61       0.11592399
  62       0.00000000
  63       0.00000000
  64      -0.00000000
  65      -0.00000000
  66       0.00000916
  67      -0.05768481
  68       0.00000000
Ene=     3.63878E-03
Spin= Alpha
Occup=   0.0000000000
   1       0.00000000
   2       0.00000000
   3      -0.00000000
   4      -0.00000000
   5       0.00000000
   6       0.00000000
   7       0.00000000
   8      -0.00000000
   9      -0.00000000
  10      -0.00000000
  11       0.00000000
  12       0.02837902
  13       0.00000451
  14      -0.00000000
  15      -0.12067961
  16      -0.00001917
  17      -0.00000000
  18       0.55266443
  19       0.00008780
  20      -0.00000000
  21       0.04455736
  22       0.00000708
  23       0.00000000
  24       0.00000000
  25       0.00000000
  26       0.11592399
  27       0.00001842
  28      -0.00000000
  29      -0.00000000
  30       0.00000000
  31       0.00000000
  32      -0.05768481
  33      -0.00000916
  34       0.00000000
  35       0.00000000
  36       0.00000000
  37       0.00000000
  38       0.00000000
  39      -0.00000000
  40      -0.00000000
  41      -0.00000000
  42       0.00000000
  43       0.00000000
  44       0.00000000
  45      -0.00000000
  46       0.02837902
  47       0.00000451
  48       0.00000000
  49      -0.12067961
  50      -0.00001917
  51      -0.00000000
  52       0.55266443
  53       0.00008780
  54      -0.00000000
  55       0.04455736
  56       0.00000708
  57      -0.00000000
  58      -0.00000000
  59      -0.00000000
  60      -0.11592399
  61      -0.00001842
  62       0.00000000
  63      -0.00000000
  64      -0.00000000
  65      -0.00000000
  66       0.05768481
  67       0.00000916
  68      -0.00000000
Ene=     4.95018E-03
Spin= Alpha
Occup=   0.0000000000
   1      -0.01190287
   2      -0.00693386
   3      18.79961905
   4      -2.03736448
   5      -0.18819717
   6      -0.13101477
   7      -0.06685731
   8       0.05646165
   9       0.00426433
  10      -0.00010491
  11       0.15979505
  12      -0.00000000
  13       0.00000000
  14       0.08632201
  15       0.00000000
  16       0.00000000
  17       3.00323073
  18      -0.00000000
  19      -0.00000000
  20      -0.38135701
  21       0.00000000
  22       0.00000000
  23       0.39815829
  24       0.50151901
  25       0.50151901
  26      -0.00000000
  27       0.00000000
  28       0.00000000
  29       0.87612600
  30       0.70270317
  31       0.70270317
  32       0.00000000
  33       0.00000000
  34      -0.00000000
  35       0.01190287
  36       0.00693386
  37     -18.79961905
  38       2.03736448
  39       0.18819717
  40       0.13101477
  41       0.06685731
  42      -0.05646165
  43      -0.00426433
  44       0.00010491
  45       0.15979505
  46       0.00000000
  47      -0.00000000
  48       0.08632201
  49      -0.00000000
  50      -0.00000000
  51       3.00323073
  52       0.00000000
  53       0.00000000
  54      -0.38135701
  55      -0.00000000
  56       0.00000000
  57      -0.39815829
  58      -0.50151901
  59      -0.50151901
  60      -0.00000000
  61       0.00000000
  62      -0.00000000
  63      -0.87612600
  64      -0.70270317
  65      -0.70270317
  66       0.00000000
  67       0.00000000
  68       0.00000000
Ene=     6.72649E-03
Spin= Alpha
Occup=   0.0000000000
   1       0.28107757
   2       4.10277178
   3      -0.31336826
   4      -0.67180286
   5       0.13651901
   6      -0.04015719
   7       0.01851265
   8      -0.00752808
   9       0.00068353
  10      -0.00016404
  11       0.20227172
  12      -0.00000000
  13      -0.00000000
  14     -15.90838911
  15       0.00000000
  16      -0.00000000
  17       1.75312082
  18      -0.00000000
  19       0.00000000
  20       0.50681112
  21      -0.00000000
  22       0.00000000
  23      -0.02872172
  24      -0.03764611
  25      -0.03764611
  26      -0.00000000
  27      -0.00000000
  28      -0.00000000
  29      -3.28837018
  30      -0.19443999
  31      -0.19443999
  32       0.00000000
  33      -0.00000000
  34       0.00000000
  35       0.28107757
  36       4.10277178
  37      -0.31336826
  38      -0.67180286
  39       0.13651901
  40      -0.04015719
  41       0.01851265
  42      -0.00752808
  43       0.00068353
  44      -0.00016404
  45      -0.20227172
  46       0.00000000
  47       0.00000000
  48      15.90838911
  49      -0.00000000
  50       0.00000000
  51      -1.75312082
  52       0.00000000
  53      -0.00000000
  54      -0.50681112
  55       0.00000000
  56      -0.00000000
  57      -0.02872172
  58      -0.03764611
  59      -0.03764611
  60      -0.00000000
  61      -0.00000000
  62       0.00000000
  63      -3.28837018
  64      -0.19443999
  65      -0.19443999
  66       0.00000000
  67      -0.00000000
  68      -0.00000000
Ene=     6.83790E-03
Spin= Alpha
Occup=   0.0000000000
   1      -0.00000000
   2      -0.00000000
   3      -0.00000000
   4      -0.00000000
   5       0.00000000
   6      -0.00000000
   7       0.00000000
   8      -0.00000000
   9       0.00000000
  10      -0.00000000
  11      -0.00000000
  12      -0.80212974
  13      -0.14098894
  14      -0.00000000
  15     -15.32675468
  16      -2.69395674
  17       0.00000000
  18       2.05998266
  19       0.36207953
  20       0.00000000
  21       0.58969447
  22       0.10364956
  23      -0.00000000
  24       0.00000000
  25      -0.00000000
  26      -0.07690304
  27      -0.01351711
  28       0.00000000
  29      -0.00000000
  30      -0.00000000
  31      -0.00000000
  32      -1.67818759
  33      -0.29497208
  34       0.00000000
  35       0.00000000
  36       0.00000000
  37       0.00000000
  38      -0.00000000
  39       0.00000000
  40      -0.00000000
  41       0.00000000
  42      -0.00000000
  43       0.00000000
  44      -0.00000000
  45       0.00000000
  46       0.80212974
  47       0.14098894
  48       0.00000000
  49      15.32675468
  50       2.69395674
  51      -0.00000000
  52      -2.05998266
  53      -0.36207953
  54      -0.00000000
  55      -0.58969447
  56      -0.10364956
  57      -0.00000000
  58       0.00000000
  59       0.00000000
  60      -0.07690304
  61      -0.01351711
  62      -0.00000000
  63      -0.00000000
  64      -0.00000000
  65      -0.00000000
  66      -1.67818759
  67      -0.29497208
  68      -0.00000000
Ene=     6.83790E-03
Spin= Alpha
Occup=   0.0000000000
   1       0.00000000
   2       0.00000000
   3       0.00000000
   4      -0.00000000
   5       0.00000000
   6      -0.00000000
   7       0.00000000
   8      -0.00000000
   9       0.00000000
  10      -0.00000000
  11      -0.00000000
  12      -0.14098894
  13       0.80212975
  14       0.00000000
  15      -2.69395674
  16      15.32675468
  17       0.00000000
  18       0.36207953
  19      -2.05998266
  20       0.00000000
  21       0.10364956
  22      -0.58969447
  23      -0.00000000
  24       0.00000000
  25      -0.00000000
  26      -0.01351711
  27       0.07690304
  28       0.00000000
  29      -0.00000000
  30      -0.00000000
  31      -0.00000000
  32      -0.29497208
  33       1.67818759
  34      -0.00000000
  35      -0.00000000
  36      -0.00000000
  37      -0.00000000
  38      -0.00000000
  39       0.00000000
  40      -0.00000000
  41       0.00000000
  42      -0.00000000
  43       0.00000000
  44      -0.00000000
  45       0.00000000
  46       0.14098894
  47      -0.80212975
  48       0.00000000
  49       2.69395674
  50     -15.32675468
  51      -0.00000000
  52      -0.36207953
  53       2.05998266
  54      -0.00000000
  55      -0.10364956
  56       0.58969447
  57      -0.00000000
  58      -0.00000000
  59       0.00000000
  60      -0.01351711
  61       0.07690304
  62      -0.00000000
  63      -0.00000000
  64       0.00000000
  65       0.00000000
  66      -0.29497208
  67       1.67818759
  68       0.00000000
Ene=     9.38605E-03
Spin= Alpha
Occup=   0.0000000000
   1      -0.00000000
   2      -0.00000000
   3      -0.00000000
   4      -0.00000000
   5       0.00000000
   6      -0.00000000
   7      -0.00000000
   8       0.00000000
   9       0.00000000
  10      -0.00000000
  11      -0.00000000
  12      -0.00000519
  13       0.02961759
  14       0.00000000
  15       0.00002221
  16      -0.12671034
  17      -0.00000000
  18      -0.00011910
  19       0.67931538
  20      -0.00000000
  21       0.00013843
  22      -0.78956294
  23       0.00000000
  24      -0.00000000
  25       0.00000000
  26      -0.00001869
  27       0.10658386
  28       0.00000000
  29       0.00000000
  30       0.00000000
  31       0.00000000
  32       0.00000811
  33      -0.04628221
  34       0.00000000
  35      -0.00000000
  36      -0.00000000
  37       0.00000000
  38       0.00000000
  39      -0.00000000
  40       0.00000000
  41       0.00000000
  42      -0.00000000
  43      -0.00000000
  44      -0.00000000
  45       0.00000000
  46      -0.00000519
  47       0.02961759
  48      -0.00000000
  49       0.00002221
  50      -0.12671034
  51      -0.00000000
  52      -0.00011910
  53       0.67931538
  54      -0.00000000
  55       0.00013843
  56      -0.78956294
  57      -0.00000000
  58       0.00000000
  59       0.00000000
  60       0.00001869
  61      -0.10658386
  62      -0.00000000
  63       0.00000000
  64      -0.00000000
  65      -0.00000000
  66      -0.00000811
  67       0.04628221
  68      -0.00000000
Ene=     9.38605E-03
Spin= Alpha
Occup=   0.0000000000
   1       0.00000000
   2       0.00000000
   3       0.00000000
   4       0.00000000
   5       0.00000000
   6       0.00000000
   7       0.00000000
   8      -0.00000000
   9       0.00000000
  10      -0.00000000
  11       0.00000000
  12      -0.02961759
  13      -0.00000519
  14      -0.00000000
  15       0.12671034
  16       0.00002221
  17       0.00000000
  18      -0.67931538
  19      -0.00011910
  20       0.00000000
  21       0.78956294
  22       0.00013843
  23      -0.00000000
  24      -0.00000000
  25      -0.00000000
  26      -0.10658386
  27      -0.00001869
  28       0.00000000
  29      -0.00000000
  30      -0.00000000
  31      -0.00000000
  32       0.04628221
  33       0.00000811
  34       0.00000000
  35       0.00000000
  36       0.00000000
  37      -0.00000000
  38      -0.00000000
  39      -0.00000000
  40      -0.00000000
  41      -0.00000000
  42       0.00000000
  43       0.00000000
  44       0.00000000
  45      -0.00000000
  46      -0.02961759
  47      -0.00000519
  48       0.00000000
  49       0.12671034
  50       0.00002221
  51       0.00000000
  52      -0.67931538
  53      -0.00011910
  54       0.00000000
  55       0.78956294
  56       0.00013843
  57       0.00000000
  58       0.00000000
  59       0.00000000
  60       0.10658386
  61       0.00001869
  62      -0.00000000
  63      -0.00000000
  64       0.00000000
  65       0.00000000
  66      -0.04628221
  67      -0.00000811
  68      -0.00000000
Ene=     1.04266E-02
Spin= Alpha
Occup=   0.0000000000
   1       0.00267857
   2       0.06593990
   3      66.93705402
   4      11.42537367
   5      -0.12194620
   6       0.05615258
   7       0.01131528
   8      -0.01248131
   9      -0.00138364
  10       0.00008443
  11      -0.04473415
  12      -0.00000000
  13       0.00000000
  14      -0.24936523
  15       0.00000000
  16       0.00000000
  17      13.36101202
  18      -0.00000000
  19      -0.00000000
  20       5.09629668
  21       0.00000000
  22       0.00000000
  23      -0.35232127
  24       0.06660832
  25       0.06660832
  26      -0.00000000
  27       0.00000000
  28       0.00000000
  29      -0.29788975
  30      -0.93039169
  31      -0.93039169
  32       0.00000000
  33       0.00000000
  34       0.00000000
  35      -0.00267857
  36      -0.06593990
  37     -66.93705402
  38     -11.42537367
  39       0.12194620
  40      -0.05615258
  41      -0.01131528
  42       0.01248131
  43       0.00138364
  44      -0.00008443
  45      -0.04473415
  46       0.00000000
  47      -0.00000000
  48      -0.24936523
  49      -0.00000000
  50      -0.00000000
  51      13.36101202
  52       0.00000000
  53       0.00000000
  54       5.09629668
  55      -0.00000000
  56      -0.00000000
  57       0.35232127
  58      -0.06660832
  59      -0.06660832
  60      -0.00000000
  61       0.00000000
  62      -0.00000000
  63       0.29788975
  64       0.93039169
  65       0.93039169
  66       0.00000000
  67       0.00000000
  68       0.00000000
Ene=     1.17566E-02
Spin= Alpha
Occup=   0.0000000000
   1       0.13113002
   2      -2.02780280
   3       0.87584580
   4      -1.67607356
   5       1.10896108
   6      -0.09657763
   7       0.11453815
   8      -0.06372209
   9       0.00022879
  10      -0.00060267
  11      -0.06387661
  12       0.00000000
  13       0.00000000
  14       8.32233173
  15      -0.00000000
  16      -0.00000000
  17      -0.54064950
  18       0.00000000
  19       0.00000000
  20       0.13769217
  21      -0.00000000
  22      -0.00000000
  23      -0.02737861
  24      -0.02155597
  25      -0.02155597
  26       0.00000000
  27       0.00000000
  28       0.00000000
  29       1.62206096
  30      -0.01665191
  31      -0.01665191
  32      -0.00000000
  33      -0.00000000
  34      -0.00000000
  35       0.13113002
  36      -2.02780280
  37       0.87584580
  38      -1.67607356
  39       1.10896108
  40      -0.09657763
  41       0.11453815
  42      -0.06372209
  43       0.00022879
  44      -0.00060267
  45       0.06387661
  46      -0.00000000
  47      -0.00000000
  48      -8.32233173
  49       0.00000000
  50       0.00000000
  51       0.54064950
  52      -0.00000000
  53      -0.00000000
  54      -0.13769217
  55       0.00000000
  56       0.00000000
  57      -0.02737861
  58      -0.02155597
  59      -0.02155597
  60       0.00000000
  61       0.00000000
  62      -0.00000000
  63       1.62206096
  64      -0.01665191
  65      -0.01665191
  66      -0.00000000
  67      -0.00000000
  68       0.00000000
Ene=     1.47760E-02
Spin= Alpha
Occup=   0.0000000000
   1      -0.00000000
   2       0.00000000
   3       0.00000000
   4       0.00000000
   5      -0.00000000
   6      -0.00000000
   7      -0.00000000
   8       0.00000000
   9       0.00000000
  10       0.00000000
  11       0.00000000
  12       0.91231112
  13       0.10690892
  14      -0.00000000
  15      17.42436976
  16       2.04186987
  17       0.00000000
  18      -3.23735499
  19      -0.37936853
  20      -0.00000000
  21       1.92991864
  22       0.22615697
  23       0.00000000
  24      -0.00000000
  25      -0.00000000
  26       0.09205814
  27       0.01078781
  28       0.00000000
  29      -0.00000000
  30      -0.00000000
  31      -0.00000000
  32       1.89152022
  33       0.22165726
  34      -0.00000000
  35      -0.00000000
  36      -0.00000000
  37      -0.00000000
  38      -0.00000000
  39       0.00000000
  40      -0.00000000
  41       0.00000000
  42      -0.00000000
  43      -0.00000000
  44      -0.00000000
  45      -0.00000000
  46      -0.91231112
  47      -0.10690892
  48       0.00000000
  49     -17.42436976
  50      -2.04186987
  51       0.00000000
  52       3.23735499
  53       0.37936853
  54       0.00000000
  55      -1.92991864
  56      -0.22615697
  57       0.00000000
  58       0.00000000
  59       0.00000000
  60       0.09205814
  61       0.01078781
  62      -0.00000000
  63      -0.00000000
  64       0.00000000
  65       0.00000000
  66       1.89152022
  67       0.22165726
  68       0.00000000
Ene=     1.47760E-02
Spin= Alpha
Occup=   0.0000000000
   1       0.00000000
   2       0.00000000
   3       0.00000000
   4       0.00000000
   5      -0.00000000
   6       0.00000000
   7      -0.00000000
   8       0.00000000
   9       0.00000000
  10       0.00000000
  11      -0.00000000
  12      -0.10690892
  13       0.91231112
  14       0.00000000
  15      -2.04186987
  16      17.42436975
  17       0.00000000
  18       0.37936853
  19      -3.23735499
  20       0.00000000
  21      -0.22615697
  22       1.92991864
  23      -0.00000000
  24      -0.00000000
  25      -0.00000000
  26      -0.01078781
  27       0.09205814
  28       0.00000000
  29      -0.00000000
  30      -0.00000000
  31      -0.00000000
  32      -0.22165726
  33       1.89152022
  34      -0.00000000
  35      -0.00000000
  36      -0.00000000
  37      -0.00000000
  38      -0.00000000
  39       0.00000000
  40      -0.00000000
  41       0.00000000
  42      -0.00000000
  43      -0.00000000
  44      -0.00000000
  45       0.00000000
  46       0.10690892
  47      -0.91231112
  48       0.00000000
  49       2.04186987
  50     -17.42436975
  51       0.00000000
  52      -0.37936853
  53       3.23735499
  54      -0.00000000
  55       0.22615697
  56      -1.92991864
  57      -0.00000000
  58       0.00000000
  59       0.00000000
  60      -0.01078781
  61       0.09205814
  62      -0.00000000
  63      -0.00000000
  64       0.00000000
  65       0.00000000
  66      -0.22165726
  67       1.89152022
  68       0.00000000
Ene=     1.48334E-02
Spin= Alpha
Occup=   0.0000000000
   1      -0.01131901
   2      -0.06182829
   3     -31.21370812
   4      -2.93133961
   5       1.23981129
   6      -0.05791261
   7       0.12713458
   8      -0.07554323
   9      -0.00057106
  10      -0.00060016
  11       0.15784380
  12       0.00000000
  13      -0.00000000
  14       0.32515548
  15      -0.00000000
  16      -0.00000000
  17      -7.36727706
  18      -0.00000000
  19      -0.00000000
  20       0.06785110
  21       0.00000000
  22       0.00000000
  23       0.56905961
  24       0.32712378
  25       0.32712378
  26       0.00000000
  27      -0.00000000
  28      -0.00000000
  29       1.01150113
  30       1.34833795
  31       1.34833795
  32      -0.00000000
  33      -0.00000000
  34      -0.00000000
  35       0.01131901
  36       0.06182828
  37      31.21370812
  38       2.93133961
  39      -1.23981129
  40       0.05791261
  41      -0.12713458
  42       0.07554323
  43       0.00057106
  44       0.00060016
  45       0.15784380
  46      -0.00000000
  47       0.00000000
  48       0.32515548
  49       0.00000000
  50       0.00000000
  51      -7.36727705
  52       0.00000000
  53       0.00000000
  54       0.06785110
  55      -0.00000000
  56      -0.00000000
  57      -0.56905961
  58      -0.32712378
  59      -0.32712378
  60       0.00000000
  61      -0.00000000
  62       0.00000000
  63      -1.01150113
  64      -1.34833795
  65      -1.34833795
  66      -0.00000000
  67      -0.00000000
  68       0.00000000
Ene=     1.48534E-02
Spin= Alpha
Occup=   0.0000000000
   1       0.61809518
   2       4.84486016
   3      -1.42602984
   4       0.00779137
   5       0.57021533
   6      -0.04971900
   7       0.04341946
   8      -0.02297176
   9       0.00044298
  10      -0.00026999
  11       0.25998436
  12      -0.00000000
  13      -0.00000000
  14     -16.74628780
  15       0.00000000
  16      -0.00000000
  17       2.66171268
  18       0.00000000
  19      -0.00000000
  20      -1.49732728
  21      -0.00000000
  22       0.00000000
  23      -0.07800303
  24      -0.08459938
  25      -0.08459938
  26      -0.00000000
  27      -0.00000000
  28      -0.00000000
  29      -3.62571332
  30      -0.39796664
  31      -0.39796664
  32       0.00000000
  33      -0.00000000
  34       0.00000000
  35       0.61809518
  36       4.84486016
  37      -1.42602984
  38       0.00779137
  39       0.57021533
  40      -0.04971900
  41       0.04341946
  42      -0.02297176
  43       0.00044298
  44      -0.00026999
  45      -0.25998436
  46       0.00000000
  47       0.00000000
  48      16.74628780
  49      -0.00000000
  50       0.00000000
  51      -2.66171268
  52      -0.00000000
  53       0.00000000
  54       1.49732728
  55       0.00000000
  56      -0.00000000
  57      -0.07800303
  58      -0.08459938
  59      -0.08459938
  60      -0.00000000
  61      -0.00000000
  62       0.00000000
  63      -3.62571332
  64      -0.39796664
  65      -0.39796664
  66       0.00000000
  67      -0.00000000
  68      -0.00000000
Ene=     2.17731E-02
Spin= Alpha
Occup=   0.0000000000
   1      -0.02912440
   2      -0.16118970
   3    -116.90541904
   4      20.79661008
   5      -1.33616216
   6       0.11740615
   7      -0.08689232
   8       0.04470022
   9      -0.00109974
  10       0.00056043
  11       0.41350568
  12       0.00000000
  13      -0.00000000
  14       0.69716377
  15      -0.00000000
  16      -0.00000000
  17     -24.98483075
  18       0.00000000
  19       0.00000000
  20       7.26600211
  21      -0.00000000
  22       0.00000000
  23       1.53808164
  24       0.92137980
  25       0.92137980
  26       0.00000000
  27      -0.00000000
  28      -0.00000000
  29       2.38199166
  30       3.26592502
  31       3.26592502
  32      -0.00000000
  33      -0.00000000
  34       0.00000000
  35       0.02912440
  36       0.16118970
  37     116.90541904
  38     -20.79661008
  39       1.33616216
  40      -0.11740615
  41       0.08689232
  42      -0.04470022
  43       0.00109974
  44      -0.00056043
  45       0.41350568
  46      -0.00000000
  47       0.00000000
  48       0.69716377
  49       0.00000000
  50       0.00000000
  51     -24.98483075
  52      -0.00000000
  53      -0.00000000
  54       7.26600211
  55       0.00000000
  56       0.00000000
  57      -1.53808164
  58      -0.92137980
  59      -0.92137980
  60       0.00000000
  61      -0.00000000
  62       0.00000000
  63      -2.38199166
  64      -3.26592502
  65      -3.26592502
  66      -0.00000000
  67      -0.00000000
  68      -0.00000000
Ene=     2.70911E-02
Spin= Alpha
Occup=   0.0000000000
   1       3.00761976
   2      -1.41661504
   3      -4.33380392
   4       2.08870510
   5      -0.57206985
   6      -0.10282150
   7      -0.02157104
   8       0.02488303
   9       0.00309620
  10      -0.00021033
  11       0.23915212
  12       0.00000000