[Molden Format]
[Title]
 Molden2AIM, Version 3.1.0 (02/25/2015)           Time: Thu Oct 17 19:55:08 2024

[Atoms] AU
E+       1       4     0.00000000     0.00000000     0.00000000
E+       2       4    42.00000000     0.00000000     0.00000000
[GTO]
    1 0
 S   1 1.0
    0.1000000000D-03      0.1000000000D+01
 S   1 1.0
    0.3000000000D-03      0.1000000000D+01
 S   1 1.0
    0.9000000000D-03      0.1000000000D+01
 S   1 1.0
    0.2700000000D-02      0.1000000000D+01
 S   1 1.0
    0.8100000000D-02      0.1000000000D+01
 S   1 1.0
    0.2430000000D-01      0.1000000000D+01
 S   1 1.0
    0.7290000000D-01      0.1000000000D+01
 S   1 1.0
    0.2187000000D+00      0.1000000000D+01
 S   1 1.0
    0.6561000000D+00      0.1000000000D+01
 S   1 1.0
    0.1968300000D+01      0.1000000000D+01
 P   1 1.0
    0.1000000000D-03      0.1000000000D+01
 P   1 1.0
    0.3000000000D-03      0.1000000000D+01
 P   1 1.0
    0.9000000000D-03      0.1000000000D+01
 P   1 1.0
    0.2700000000D-02      0.1000000000D+01
 D   1 1.0
    0.1000000000D-03      0.1000000000D+01
 D   1 1.0
    0.3000000000D-03      0.1000000000D+01

    2 0
 S   1 1.0
    0.1000000000D-03      0.1000000000D+01
 S   1 1.0
    0.3000000000D-03      0.1000000000D+01
 S   1 1.0
    0.9000000000D-03      0.1000000000D+01
 S   1 1.0
    0.2700000000D-02      0.1000000000D+01
 S   1 1.0
    0.8100000000D-02      0.1000000000D+01
 S   1 1.0
    0.2430000000D-01      0.1000000000D+01
 S   1 1.0
    0.7290000000D-01      0.1000000000D+01
 S   1 1.0
    0.2187000000D+00      0.1000000000D+01
 S   1 1.0
    0.6561000000D+00      0.1000000000D+01
 S   1 1.0
    0.1968300000D+01      0.1000000000D+01
 P   1 1.0
    0.1000000000D-03      0.1000000000D+01
 P   1 1.0
    0.3000000000D-03      0.1000000000D+01
 P   1 1.0
    0.9000000000D-03      0.1000000000D+01
 P   1 1.0
    0.2700000000D-02      0.1000000000D+01
 D   1 1.0
    0.1000000000D-03      0.1000000000D+01
 D   1 1.0
    0.3000000000D-03      0.1000000000D+01


[MO]
 Ene=         -0.00319739
 Spin= Alpha
 Occup=        1.00000000
    1        0.0083686300
    2        0.0083321500
    3       -0.0299598000
    4       -0.1973487100
    5       -0.2984943800
    6       -0.1972662100
    7       -0.1217614200
    8        0.0984575100
    9        0.0067512400
   10       -0.0000965900
   11       -0.0225881700
   12       -0.0000000000
   13        0.0000000000
   14        0.0013032200
   15        0.0000000000
   16        0.0000000000
   17       -0.0105150900
   18       -0.0000000000
   19        0.0000000000
   20       -0.0735902200
   21        0.0000000000
   22       -0.0000000000
   23       -0.0078145300
   24        0.0001416300
   25        0.0001416300
   26       -0.0000000000
   27        0.0000000000
   28        0.0000000000
   29       -0.0025505300
   30       -0.0003566900
   31       -0.0003566900
   32        0.0000000000
   33        0.0000000000
   34       -0.0000000000
   35        0.0083686300
   36        0.0083321500
   37       -0.0299598000
   38       -0.1973487100
   39       -0.2984943800
   40       -0.1972662100
   41       -0.1217614200
   42        0.0984575100
   43        0.0067512400
   44       -0.0000965900
   45        0.0225881700
   46        0.0000000000
   47       -0.0000000000
   48       -0.0013032200
   49       -0.0000000000
   50       -0.0000000000
   51        0.0105150900
   52        0.0000000000
   53       -0.0000000000
   54        0.0735902200
   55       -0.0000000000
   56        0.0000000000
   57       -0.0078145300
   58        0.0001416300
   59        0.0001416300
   60       -0.0000000000
   61        0.0000000000
   62       -0.0000000000
   63       -0.0025505300
   64       -0.0003566900
   65       -0.0003566900
   66       -0.0000000000
   67        0.0000000000
   68        0.0000000000
 Ene=         -0.00295486
 Spin= Alpha
 Occup=        0.00000000
    1        0.0069484600
    2       -0.4588389800
    3       -0.0022730800
    4       -0.2572152500
    5       -0.2830721500
    6       -0.2160405100
    7       -0.1230432900
    8        0.1012686100
    9        0.0072661900
   10       -0.0001452900
   11       -0.0051205100
   12       -0.0000000000
   13        0.0000000000
   14       -0.1915950000
   15        0.0000000000
   16       -0.0000000000
   17        0.0222945600
   18       -0.0000000000
   19       -0.0000000000
   20       -0.1043076900
   21        0.0000000000
   22        0.0000000000
   23       -0.0058391700
   24       -0.0052081600
   25       -0.0052081600
   26       -0.0000000000
   27        0.0000000000
   28        0.0000000000
   29       -0.0531797400
   30       -0.0126673800
   31       -0.0126673800
   32        0.0000000000
   33       -0.0000000000
   34       -0.0000000000
   35       -0.0069484600
   36        0.4588389800
   37        0.0022730800
   38        0.2572152500
   39        0.2830721500
   40        0.2160405100
   41        0.1230432900
   42       -0.1012686100
   43       -0.0072661900
   44        0.0001452900
   45       -0.0051205100
   46        0.0000000000
   47       -0.0000000000
   48       -0.1915950000
   49       -0.0000000000
   50        0.0000000000
   51        0.0222945600
   52       -0.0000000000
   53       -0.0000000000
   54       -0.1043076900
   55        0.0000000000
   56        0.0000000000
   57        0.0058391700
   58        0.0052081600
   59        0.0052081600
   60       -0.0000000000
   61        0.0000000000
   62       -0.0000000000
   63        0.0531797400
   64        0.0126673800
   65        0.0126673800
   66        0.0000000000
   67       -0.0000000000
   68        0.0000000000
 Ene=          0.00441598
 Spin= Alpha
 Occup=        0.00000000
    1        0.6263439800
    2        0.1171598900
    3       -0.9630079300
    4        0.5650772200
    5        0.0813703900
    6        0.1201557600
    7        0.0413881900
    8       -0.0387507200
    9       -0.0036223400
   10        0.0001716700
   11       -1.0416818800
   12       -0.0000000000
   13       -0.0000000000
   14        0.3314976400
   15        0.0000000000
   16        0.0000000000
   17       -0.4549231900
   18       -0.0000000000
   19        0.0000000000
   20        0.0349356700
   21       -0.0000000000
   22       -0.0000000000
   23       -0.4103258400
   24       -0.0275521700
   25       -0.0275521700
   26       -0.0000000000
   27       -0.0000000000
   28        0.0000000000
   29        0.0224778800
   30       -0.0922934900
   31       -0.0922934900
   32        0.0000000000
   33        0.0000000000
   34       -0.0000000000
   35        0.6263439800
   36        0.1171598900
   37       -0.9630079300
   38        0.5650772200
   39        0.0813703900
   40        0.1201557600
   41        0.0413881900
   42       -0.0387507200
   43       -0.0036223400
   44        0.0001716700
   45        1.0416818800
   46        0.0000000000
   47        0.0000000000
   48       -0.3314976400
   49       -0.0000000000
   50       -0.0000000000
   51        0.4549231900
   52       -0.0000000000
   53       -0.0000000000
   54       -0.0349356700
   55       -0.0000000000
   56        0.0000000000
   57       -0.4103258400
   58       -0.0275521700
   59       -0.0275521700
   60       -0.0000000000
   61       -0.0000000000
   62       -0.0000000000
   63        0.0224778800
   64       -0.0922934900
   65       -0.0922934900
   66        0.0000000000
   67        0.0000000000
   68        0.0000000000
 Ene=          0.00785600
 Spin= Alpha
 Occup=        0.00000000
    1       -0.0000000000
    2       -0.0000000000
    3        0.0000000000
    4       -0.0000000000
    5        0.0000000000
    6       -0.0000000000
    7        0.0000000000
    8       -0.0000000000
    9       -0.0000000000
   10        0.0000000000
   11        0.0000000000
   12        0.0247374000
   13        0.0197151300
   14       -0.0000000000
   15       -0.0712547200
   16       -0.0567883500
   17        0.0000000000
   18        0.2376939700
   19        0.1894365500
   20       -0.0000000000
   21        0.3273919300
   22        0.2609237400
   23        0.0000000000
   24       -0.0000000000
   25       -0.0000000000
   26       -0.0166835200
   27       -0.0132963700
   28        0.0000000000
   29       -0.0000000000
   30       -0.0000000000
   31       -0.0000000000
   32        0.0378812100
   33        0.0301904400
   34       -0.0000000000
   35       -0.0000000000
   36        0.0000000000
   37       -0.0000000000
   38        0.0000000000
   39        0.0000000000
   40       -0.0000000000
   41        0.0000000000
   42       -0.0000000000
   43        0.0000000000
   44        0.0000000000
   45       -0.0000000000
   46        0.0247374000
   47        0.0197151300
   48       -0.0000000000
   49       -0.0712547200
   50       -0.0567883500
   51        0.0000000000
   52        0.2376939700
   53        0.1894365500
   54        0.0000000000
   55        0.3273919300
   56        0.2609237400
   57        0.0000000000
   58        0.0000000000
   59        0.0000000000
   60        0.0166835200
   61        0.0132963700
   62       -0.0000000000
   63        0.0000000000
   64        0.0000000000
   65        0.0000000000
   66       -0.0378812100
   67       -0.0301904400
   68        0.0000000000
 Ene=          0.00785600
 Spin= Alpha
 Occup=        0.00000000
    1       -0.0000000000
    2        0.0000000000
    3       -0.0000000000
    4        0.0000000000
    5       -0.0000000000
    6        0.0000000000
    7       -0.0000000000
    8        0.0000000000
    9       -0.0000000000
   10        0.0000000000
   11       -0.0000000000
   12        0.0197151300
   13       -0.0247374000
   14        0.0000000000
   15       -0.0567883500
   16        0.0712547200
   17       -0.0000000000
   18        0.1894365500
   19       -0.2376939700
   20        0.0000000000
   21        0.2609237400
   22       -0.3273919300
   23       -0.0000000000
   24        0.0000000000
   25        0.0000000000
   26       -0.0132963700
   27        0.0166835200
   28        0.0000000000
   29        0.0000000000
   30        0.0000000000
   31        0.0000000000
   32        0.0301904400
   33       -0.0378812100
   34        0.0000000000
   35        0.0000000000
   36       -0.0000000000
   37        0.0000000000
   38       -0.0000000000
   39       -0.0000000000
   40       -0.0000000000
   41        0.0000000000
   42        0.0000000000
   43        0.0000000000
   44       -0.0000000000
   45        0.0000000000
   46        0.0197151300
   47       -0.0247374000
   48        0.0000000000
   49       -0.0567883500
   50        0.0712547200
   51       -0.0000000000
   52        0.1894365500
   53       -0.2376939700
   54        0.0000000000
   55        0.2609237400
   56       -0.3273919300
   57       -0.0000000000
   58       -0.0000000000
   59       -0.0000000000
   60        0.0132963700
   61       -0.0166835200
   62       -0.0000000000
   63       -0.0000000000
   64       -0.0000000000
   65       -0.0000000000
   66       -0.0301904400
   67        0.0378812100
   68       -0.0000000000
 Ene=          0.01007280
 Spin= Alpha
 Occup=        0.00000000
    1        0.2204328900
    2      -19.9417179200
    3        1.9285935300
    4        0.2003369300
    5       -0.5565278700
    6       -0.0416298800
    7       -0.0819330600
    8        0.0560553000
    9        0.0021787100
   10        0.0001930200
   11        0.1069438900
   12        0.0000000000
   13       -0.0000000000
   14       -7.9223067700
   15       -0.0000000000
   16        0.0000000000
   17        0.7723047200
   18        0.0000000000
   19       -0.0000000000
   20        0.4062073400
   21       -0.0000000000
   22        0.0000000000
   23        0.0820920400
   24        0.0551885600
   25        0.0551885600
   26        0.0000000000
   27       -0.0000000000
   28        0.0000000000
   29       -1.6099763000
   30        0.0888414000
   31        0.0888414000
   32       -0.0000000000
   33        0.0000000000
   34       -0.0000000000
   35       -0.2204328900
   36       19.9417179200
   37       -1.9285935300
   38       -0.2003369300
   39        0.5565278700
   40        0.0416298800
   41        0.0819330600
   42       -0.0560553000
   43       -0.0021787100
   44       -0.0001930200
   45        0.1069438900
   46       -0.0000000000
   47        0.0000000000
   48       -7.9223067700
   49        0.0000000000
   50       -0.0000000000
   51        0.7723047200
   52       -0.0000000000
   53        0.0000000000
   54        0.4062073400
   55        0.0000000000
   56       -0.0000000000
   57       -0.0820920400
   58       -0.0551885600
   59       -0.0551885600
   60        0.0000000000
   61       -0.0000000000
   62       -0.0000000000
   63        1.6099763000
   64       -0.0888414000
   65       -0.0888414000
   66       -0.0000000000
   67        0.0000000000
   68        0.0000000000
 Ene=          0.01010660
 Spin= Alpha
 Occup=        0.00000000
    1        0.0000000000
    2        0.0000000000
    3       -0.0000000000
    4       -0.0000000000
    5        0.0000000000
    6        0.0000000000
    7        0.0000000000
    8       -0.0000000000
    9        0.0000000000
   10       -0.0000000000
   11       -0.0000000000
   12        0.0195055600
   13       -0.0975774800
   14        0.0000000000
   15       -0.0189889200
   16        0.0949929800
   17       -0.0000000000
   18        0.0001213800
   19       -0.0006072300
   20       -0.0000000000
   21       -0.1453366700
   22        0.7270535000
   23       -0.0000000000
   24       -0.0000000000
   25       -0.0000000000
   26        0.0047144900
   27       -0.0235844700
   28        0.0000000000
   29        0.0000000000
   30       -0.0000000000
   31       -0.0000000000
   32       -0.0080372500
   33        0.0402067400
   34       -0.0000000000
   35        0.0000000000
   36       -0.0000000000
   37        0.0000000000
   38        0.0000000000
   39       -0.0000000000
   40       -0.0000000000
   41       -0.0000000000
   42        0.0000000000
   43        0.0000000000
   44       -0.0000000000
   45        0.0000000000
   46       -0.0195055600
   47        0.0975774800
   48        0.0000000000
   49        0.0189889200
   50       -0.0949929800
   51       -0.0000000000
   52       -0.0001213800
   53        0.0006072300
   54       -0.0000000000
   55        0.1453366700
   56       -0.7270535000
   57       -0.0000000000
   58        0.0000000000
   59        0.0000000000
   60        0.0047144900
   61       -0.0235844700
   62       -0.0000000000
   63       -0.0000000000
   64        0.0000000000
   65        0.0000000000
   66       -0.0080372500
   67        0.0402067400
   68        0.0000000000
 Ene=          0.01010660
 Spin= Alpha
 Occup=        0.00000000
    1        0.0000000000
    2       -0.0000000000
    3        0.0000000000
    4        0.0000000000
    5       -0.0000000000
    6        0.0000000000
    7       -0.0000000000
    8        0.0000000000
    9        0.0000000000
   10        0.0000000000
   11       -0.0000000000
   12        0.0975774800
   13        0.0195055600
   14       -0.0000000000
   15       -0.0949929800
   16       -0.0189889200
   17       -0.0000000000
   18        0.0006072300
   19        0.0001213800
   20        0.0000000000
   21       -0.7270535000
   22       -0.1453366700
   23       -0.0000000000
   24        0.0000000000
   25        0.0000000000
   26        0.0235844700
   27        0.0047144900
   28        0.0000000000
   29        0.0000000000
   30        0.0000000000
   31        0.0000000000
   32       -0.0402067400
   33       -0.0080372500
   34       -0.0000000000
   35       -0.0000000000
   36        0.0000000000
   37       -0.0000000000
   38        0.0000000000
   39        0.0000000000
   40        0.0000000000
   41       -0.0000000000
   42        0.0000000000
   43       -0.0000000000
   44        0.0000000000
   45        0.0000000000
   46       -0.0975774800
   47       -0.0195055600
   48       -0.0000000000
   49        0.0949929800
   50        0.0189889200
   51        0.0000000000
   52       -0.0006072300
   53       -0.0001213800
   54       -0.0000000000
   55        0.7270535000
   56        0.1453366700
   57       -0.0000000000
   58       -0.0000000000
   59       -0.0000000000
   60        0.0235844700
   61        0.0047144900
   62       -0.0000000000
   63        0.0000000000
   64        0.0000000000
   65        0.0000000000
   66       -0.0402067400
   67       -0.0080372500
   68        0.0000000000
 Ene=          0.01042520
 Spin= Alpha
 Occup=        0.00000000
    1        0.3562354400
    2       -0.2693172100
    3       -0.5788442800
    4        1.3395863100
    5       -0.7002635100
    6        0.0530340900
    7       -0.0795498000
    8        0.0449755200
    9       -0.0001581900
   10        0.0004262900
   11       -1.3239749100
   12       -0.0000000000
   13       -0.0000000000
   14        0.3595244500
   15        0.0000000000
   16       -0.0000000000
   17       -0.6328425500
   18       -0.0000000000
   19        0.0000000000
   20        0.7697192300
   21        0.0000000000
   22       -0.0000000000
   23       -0.4599982700
   24        0.0292068700
   25        0.0292068700
   26       -0.0000000000
   27       -0.0000000000
   28        0.0000000000
   29        0.2128102800
   30        0.0998157900
   31        0.0998157900
   32        0.0000000000
   33       -0.0000000000
   34        0.0000000000
   35        0.3562354400
   36       -0.2693172200
   37       -0.5788442800
   38        1.3395863100
   39       -0.7002635100
   40        0.0530340900
   41       -0.0795498000
   42        0.0449755200
   43       -0.0001581900
   44        0.0004262900
   45        1.3239749100
   46        0.0000000000
   47        0.0000000000
   48       -0.3595244400
   49       -0.0000000000
   50        0.0000000000
   51        0.6328425500
   52        0.0000000000
   53       -0.0000000000
   54       -0.7697192300
   55       -0.0000000000
   56        0.0000000000
   57       -0.4599982700
   58        0.0292068700
   59        0.0292068700
   60       -0.0000000000
   61       -0.0000000000
   62       -0.0000000000
   63        0.2128102800
   64        0.0998157900
   65        0.0998157900
   66        0.0000000000
   67       -0.0000000000
   68       -0.0000000000
 Ene=          0.01498030
 Spin= Alpha
 Occup=        0.00000000
    1       -0.0000000000
    2        0.0000000000
    3       -0.0000000000
    4        0.0000000000
    5       -0.0000000000
    6        0.0000000000
    7       -0.0000000000
    8        0.0000000000
    9        0.0000000000
   10       -0.0000000000
   11       -0.0000000000
   12       -0.0734472800
   13        0.0178888400
   14        0.0000000000
   15        0.2293622500
   16       -0.0558635200
   17       -0.0000000000
   18       -0.9552437400
   19        0.2326593900
   20        0.0000000000
   21        0.9188797400
   22       -0.2238025700
   23       -0.0000000000
   24        0.0000000000
   25        0.0000000000
   26        0.0342251200
   27       -0.0083358800
   28        0.0000000000
   29        0.0000000000
   30        0.0000000000
   31        0.0000000000
   32       -0.0943335200
   33        0.0229759000
   34       -0.0000000000
   35        0.0000000000
   36       -0.0000000000
   37        0.0000000000
   38       -0.0000000000
   39        0.0000000000
   40       -0.0000000000
   41        0.0000000000
   42       -0.0000000000
   43       -0.0000000000
   44        0.0000000000
   45        0.0000000000
   46       -0.0734472800
   47        0.0178888400
   48        0.0000000000
   49        0.2293622500
   50       -0.0558635200
   51       -0.0000000000
   52       -0.9552437400
   53        0.2326593900
   54        0.0000000000
   55        0.9188797400
   56       -0.2238025700
   57       -0.0000000000
   58       -0.0000000000
   59       -0.0000000000
   60       -0.0342251200
   61        0.0083358800
   62       -0.0000000000
   63       -0.0000000000
   64       -0.0000000000
   65       -0.0000000000
   66        0.0943335200
   67       -0.0229759000
   68        0.0000000000
 Ene=          0.01498030
 Spin= Alpha
 Occup=        0.00000000
    1       -0.0000000000
    2        0.0000000000
    3       -0.0000000000
    4        0.0000000000
    5       -0.0000000000
    6        0.0000000000
    7       -0.0000000000
    8        0.0000000000
    9        0.0000000000
   10       -0.0000000000
   11        0.0000000000
   12       -0.0178888400
   13       -0.0734472800
   14        0.0000000000
   15        0.0558635200
   16        0.2293622500
   17       -0.0000000000
   18       -0.2326593900
   19       -0.9552437400
   20        0.0000000000
   21        0.2238025700
   22        0.9188797400
   23        0.0000000000
   24        0.0000000000
   25        0.0000000000
   26        0.0083358800
   27        0.0342251200
   28       -0.0000000000
   29        0.0000000000
   30        0.0000000000
   31        0.0000000000
   32       -0.0229759000
   33       -0.0943335200
   34        0.0000000000
   35        0.0000000000
   36       -0.0000000000
   37        0.0000000000
   38       -0.0000000000
   39        0.0000000000
   40       -0.0000000000
   41        0.0000000000
   42       -0.0000000000
   43        0.0000000000
   44       -0.0000000000
   45       -0.0000000000
   46       -0.0178888400
   47       -0.0734472800
   48        0.0000000000
   49        0.0558635200
   50        0.2293622500
   51       -0.0000000000
   52       -0.2326593900
   53       -0.9552437400
   54        0.0000000000
   55        0.2238025700
   56        0.9188797400
   57       -0.0000000000
   58       -0.0000000000
   59       -0.0000000000
   60       -0.0083358800
   61       -0.0342251200
   62        0.0000000000
   63       -0.0000000000
   64       -0.0000000000
   65       -0.0000000000
   66        0.0229759000
   67        0.0943335200
   68       -0.0000000000
 Ene=          0.01590240
 Spin= Alpha
 Occup=        0.00000000
    1        0.3032111700
    2      -24.0120345000
    3        1.9582325200
    4       -0.9687918400
    5        0.3392617700
    6       -0.0577815600
    7        0.0278601000
    8       -0.0118419000
    9        0.0009694300
   10       -0.0002443100
   11       -0.0232454700
   12        0.0000000000
   13       -0.0000000000
   14       -9.7169962900
   15       -0.0000000000
   16        0.0000000000
   17        1.2150039700
   18       -0.0000000000
   19       -0.0000000000
   20       -0.9224435100
   21        0.0000000000
   22        0.0000000000
   23       -0.0634893700
   24       -0.0626620800
   25       -0.0626620800
   26        0.0000000000
   27       -0.0000000000
   28       -0.0000000000
   29       -2.2479695000
   30       -0.1895077900
   31       -0.1895077900
   32       -0.0000000000
   33        0.0000000000
   34        0.0000000000
   35       -0.3032111700
   36       24.0120345000
   37       -1.9582325200
   38        0.9687918400
   39       -0.3392617700
   40        0.0577815600
   41       -0.0278601000
   42        0.0118419000
   43       -0.0009694300
   44        0.0002443100
   45       -0.0232454700
   46       -0.0000000000
   47        0.0000000000
   48       -9.7169962900
   49        0.0000000000
   50       -0.0000000000
   51        1.2150039700
   52       -0.0000000000
   53        0.0000000000
   54       -0.9224435100
   55        0.0000000000
   56        0.0000000000
   57        0.0634893700
   58        0.0626620800
   59        0.0626620800
   60        0.0000000000
   61       -0.0000000000
   62        0.0000000000
   63        2.2479695000
   64        0.1895077900
   65        0.1895077900
   66       -0.0000000000
   67        0.0000000000
   68       -0.0000000000
 Ene=          0.01644520
 Spin= Alpha
 Occup=        0.00000000
    1        0.1428002200
    2       -0.0076525200
    3       -0.2386421800
    4        1.2803053400
    5       -0.7753857300
    6       -0.0199739600
    7       -0.0819875000
    8        0.0538764100
    9        0.0017331300
   10        0.0002405600
   11       -0.4129296400
   12       -0.0000000000
   13        0.0000000000
   14        0.0426576100
   15        0.0000000000
   16       -0.0000000000
   17       -0.2026192600
   18        0.0000000000
   19       -0.0000000000
   20       -0.2859798200
   21       -0.0000000000
   22        0.0000000000
   23       -0.1443848900
   24        0.0032939600
   25        0.0032939600
   26       -0.0000000000
   27        0.0000000000
   28       -0.0000000000
   29       -0.0011194200
   30        0.0188333900
   31        0.0188333900
   32        0.0000000000
   33       -0.0000000000
   34        0.0000000000
   35        0.1428002200
   36       -0.0076525200
   37       -0.2386421800
   38        1.2803053400
   39       -0.7753857300
   40       -0.0199739600
   41       -0.0819875000
   42        0.0538764100
   43        0.0017331300
   44        0.0002405600
   45        0.4129296400
   46        0.0000000000
   47       -0.0000000000
   48       -0.0426576100
   49       -0.0000000000
   50        0.0000000000
   51        0.2026192600
   52        0.0000000000
   53        0.0000000000
   54        0.2859798200
   55       -0.0000000000
   56        0.0000000000
   57       -0.1443848900
   58        0.0032939600
   59        0.0032939600
   60       -0.0000000000
   61        0.0000000000
   62        0.0000000000
   63       -0.0011194200
   64        0.0188333900
   65        0.0188333900
   66        0.0000000000
   67       -0.0000000000
   68       -0.0000000000
 Ene=          0.01930360
 Spin= Alpha
 Occup=        0.00000000
    1       -0.3006696100
    2       25.5447309500
    3       -3.5206500400
    4        2.4414231200
    5       -1.0468969400
    6        0.0045497000
    7       -0.0958727800
    8        0.0601425700
    9        0.0013689500
   10        0.0003506100
   11       -0.0663582300
   12       -0.0000000000
   13        0.0000000000
   14       10.2505485100
   15        0.0000000000
   16       -0.0000000000
   17       -1.6380026000
   18       -0.0000000000
   19        0.0000000000
   20       -0.1161524600
   21        0.0000000000
   22       -0.0000000000
   23       -0.0168473100
   24       -0.0188393600
   25       -0.0188393600
   26       -0.0000000000
   27        0.0000000000
   28       -0.0000000000
   29        2.1986497900
   30        0.0512470900
   31        0.0512470900
   32        0.0000000000
   33       -0.0000000000
   34        0.0000000000
   35        0.3006696100
   36      -25.5447309500
   37        3.5206500400
   38       -2.4414231200
   39        1.0468969400
   40       -0.0045497000
   41        0.0958727800
   42       -0.0601425700
   43       -0.0013689500
   44       -0.0003506100
   45       -0.0663582300
   46        0.0000000000
   47       -0.0000000000
   48       10.2505485100
   49       -0.0000000000
   50        0.0000000000
   51       -1.6380026000
   52        0.0000000000
   53       -0.0000000000
   54       -0.1161524600
   55       -0.0000000000
   56        0.0000000000
   57        0.0168473100
   58        0.0188393600
   59        0.0188393600
   60       -0.0000000000
   61        0.0000000000
   62        0.0000000000
   63       -2.1986497900
   64       -0.0512470900
   65       -0.0512470900
   66        0.0000000000
   67       -0.0000000000
   68       -0.0000000000
 Ene=          0.02154040
 Spin= Alpha
 Occup=        0.00000000
    1        0.0000000000
    2       -0.0000000000
    3       -0.0000000000
    4        0.0000000000
    5       -0.0000000000
    6       -0.0000000000
    7       -0.0000000000
    8        0.0000000000
    9        0.0000000000
   10       -0.0000000000
   11        0.0000000000
   12        1.8019848400
   13       -4.7288811800
   14       -0.0000000000
   15       -0.4132575500
   16        1.0844962800
   17        0.0000000000
   18        0.5831370000
   19       -1.5303045500
   20       -0.0000000000
   21       -0.2857970600
   22        0.7500065000
   23        0.0000000000
   24       -0.0000000000
   25       -0.0000000000
   26        0.3695840700
   27       -0.9698856000
   28        0.0000000000
   29       -0.0000000000
   30       -0.0000000000
   31       -0.0000000000
   32       -0.0742953100
   33        0.1949703800
   34        0.0000000000
   35       -0.0000000000
   36        0.0000000000
   37        0.0000000000
   38       -0.0000000000
   39        0.0000000000
   40        0.0000000000
   41        0.0000000000
   42       -0.0000000000
   43        0.0000000000
   44       -0.0000000000
   45       -0.0000000000
   46       -1.8019848400
   47        4.7288811800
   48       -0.0000000000
   49        0.4132575500
   50       -1.0844962800
   51        0.0000000000
   52       -0.5831370000
   53        1.5303045500
   54       -0.0000000000
   55        0.2857970600
   56       -0.7500065000
   57        0.0000000000
   58        0.0000000000
   59        0.0000000000
   60        0.3695840700
   61       -0.9698856000
   62       -0.0000000000
   63        0.0000000000
   64        0.0000000000
   65        0.0000000000
   66       -0.0742953100
   67        0.1949703800
   68       -0.0000000000
 Ene=          0.02154040
 Spin= Alpha
 Occup=        0.00000000
    1        0.0000000000
    2        0.0000000000
    3       -0.0000000000
    4       -0.0000000000
    5        0.0000000000
    6       -0.0000000000
    7        0.0000000000
    8        0.0000000000
    9       -0.0000000000
   10        0.0000000000
   11        0.0000000000
   12        4.7288811800
   13        1.8019848400
   14        0.0000000000
   15       -1.0844962800
   16       -0.4132575500