[Molden Format]
[Atoms] AU
E+       1       4     0.00000000     0.00000000     0.00000000
E+       2       4    10.60000000     0.00000000     0.00000000
[GTO]
  1 0
s  1 1.00
   1.0000000000E-04   1.0000000000E+00
s  1 1.00
   3.0000000000E-04   1.0000000000E+00
s  1 1.00
   9.0000000000E-04   1.0000000000E+00
s  1 1.00
   2.7000000000E-03   1.0000000000E+00
s  1 1.00
   8.1000000000E-03   1.0000000000E+00
s  1 1.00
   2.4300000000E-02   1.0000000000E+00
s  1 1.00
   7.2900000000E-02   1.0000000000E+00
s  1 1.00
   2.1870000000E-01   1.0000000000E+00
s  1 1.00
   6.5610000000E-01   1.0000000000E+00
s  1 1.00
   1.9683000000E+00   1.0000000000E+00
p  1 1.00
   1.0000000000E-04   1.0000000000E+00
p  1 1.00
   3.0000000000E-04   1.0000000000E+00
p  1 1.00
   9.0000000000E-04   1.0000000000E+00
p  1 1.00
   2.7000000000E-03   1.0000000000E+00
d  1 1.00
   1.0000000000E-04   1.0000000000E+00
d  1 1.00
   3.0000000000E-04   1.0000000000E+00
 
  2 0
s  1 1.00
   1.0000000000E-04   1.0000000000E+00
s  1 1.00
   3.0000000000E-04   1.0000000000E+00
s  1 1.00
   9.0000000000E-04   1.0000000000E+00
s  1 1.00
   2.7000000000E-03   1.0000000000E+00
s  1 1.00
   8.1000000000E-03   1.0000000000E+00
s  1 1.00
   2.4300000000E-02   1.0000000000E+00
s  1 1.00
   7.2900000000E-02   1.0000000000E+00
s  1 1.00
   2.1870000000E-01   1.0000000000E+00
s  1 1.00
   6.5610000000E-01   1.0000000000E+00
s  1 1.00
   1.9683000000E+00   1.0000000000E+00
p  1 1.00
   1.0000000000E-04   1.0000000000E+00
p  1 1.00
   3.0000000000E-04   1.0000000000E+00
p  1 1.00
   9.0000000000E-04   1.0000000000E+00
p  1 1.00
   2.7000000000E-03   1.0000000000E+00
d  1 1.00
   1.0000000000E-04   1.0000000000E+00
d  1 1.00
   3.0000000000E-04   1.0000000000E+00
 
 
[MO]
Ene=    -9.29060E-03
Spin= Alpha
Occup=   1.0000000000
   1       0.00870076
   2       0.12812722
   3      -0.02422176
   4      -0.08660007
   5      -0.23524023
   6      -0.24468896
   7      -0.12484900
   8       0.10890299
   9       0.00833852
  10      -0.00024998
  11       0.00773736
  12      -0.00000000
  13      -0.00000000
  14      -0.62335382
  15      -0.00000000
  16      -0.00000000
  17       0.02563326
  18       0.00000000
  19       0.00000000
  20      -0.03070760
  21      -0.00000000
  22      -0.00000000
  23      -0.00070938
  24      -0.00126954
  25      -0.00126954
  26      -0.00000000
  27      -0.00000000
  28      -0.00000000
  29      -0.10407355
  30      -0.00554386
  31      -0.00554386
  32      -0.00000000
  33      -0.00000000
  34       0.00000000
  35       0.00870076
  36       0.12812722
  37      -0.02422176
  38      -0.08660007
  39      -0.23524023
  40      -0.24468896
  41      -0.12484900
  42       0.10890299
  43       0.00833852
  44      -0.00024998
  45      -0.00773736
  46       0.00000000
  47       0.00000000
  48       0.62335382
  49       0.00000000
  50       0.00000000
  51      -0.02563326
  52      -0.00000000
  53      -0.00000000
  54       0.03070760
  55       0.00000000
  56       0.00000000
  57      -0.00070938
  58      -0.00126954
  59      -0.00126954
  60      -0.00000000
  61      -0.00000000
  62       0.00000000
  63      -0.10407355
  64      -0.00554386
  65      -0.00554386
  66      -0.00000000
  67      -0.00000000
  68      -0.00000000
Ene=     2.13211E-03
Spin= Alpha
Occup=   0.0000000000
   1      -0.00515604
   2      -0.00257183
   3      14.41126140
   4      -1.28146601
   5       0.38373823
   6       0.10442883
   7       0.07097271
   8      -0.05846746
   9      -0.00416806
  10       0.00008000
  11       0.08568966
  12      -0.00000000
  13      -0.00000000
  14       0.04808946
  15       0.00000000
  16      -0.00000000
  17       1.93226397
  18      -0.00000000
  19       0.00000000
  20      -0.44851033
  21       0.00000000
  22      -0.00000000
  23       0.27063623
  24       0.32969427
  25       0.32969427
  26      -0.00000000
  27      -0.00000000
  28      -0.00000000
  29       0.57869791
  30       0.48252750
  31       0.48252750
  32       0.00000000
  33      -0.00000000
  34      -0.00000000
  35       0.00515604
  36       0.00257182
  37     -14.41126140
  38       1.28146601
  39      -0.38373823
  40      -0.10442883
  41      -0.07097271
  42       0.05846746
  43       0.00416806
  44      -0.00008000
  45       0.08568966
  46       0.00000000
  47       0.00000000
  48       0.04808946
  49      -0.00000000
  50       0.00000000
  51       1.93226397
  52       0.00000000
  53      -0.00000000
  54      -0.44851033
  55      -0.00000000
  56       0.00000000
  57      -0.27063623
  58      -0.32969427
  59      -0.32969427
  60      -0.00000000
  61      -0.00000000
  62       0.00000000
  63      -0.57869791
  64      -0.48252750
  65      -0.48252750
  66       0.00000000
  67      -0.00000000
  68       0.00000000
Ene=     2.52164E-03
Spin= Alpha
Occup=   0.0000000000
   1       0.15963976
   2       0.09499504
   3      -1.18085761
   4       0.68172871
   5      -0.12967935
   6       0.12477679
   7       0.00364923
   8      -0.01546135
   9      -0.00318988
  10       0.00032053
  11       0.00488144
  12       0.00000000
  13       0.00000000
  14       1.31522938
  15       0.00000000
  16       0.00000000
  17      -0.17215122
  18      -0.00000000
  19      -0.00000000
  20       0.01764619
  21       0.00000000
  22       0.00000000
  23      -0.02125740
  24      -0.02245310
  25      -0.02245310
  26       0.00000000
  27       0.00000000
  28       0.00000000
  29       0.10346589
  30      -0.10191876
  31      -0.10191876
  32       0.00000000
  33       0.00000000
  34      -0.00000000
  35       0.15963976
  36       0.09499504
  37      -1.18085761
  38       0.68172871
  39      -0.12967935
  40       0.12477679
  41       0.00364923
  42      -0.01546135
  43      -0.00318988
  44       0.00032053
  45      -0.00488144
  46      -0.00000000
  47      -0.00000000
  48      -1.31522938
  49      -0.00000000
  50      -0.00000000
  51       0.17215122
  52       0.00000000
  53       0.00000000
  54      -0.01764619
  55      -0.00000000
  56      -0.00000000
  57      -0.02125740
  58      -0.02245310
  59      -0.02245310
  60       0.00000000
  61       0.00000000
  62      -0.00000000
  63       0.10346589
  64      -0.10191876
  65      -0.10191876
  66       0.00000000
  67       0.00000000
  68       0.00000000
Ene=     3.54594E-03
Spin= Alpha
Occup=   0.0000000000
   1      -0.00000000
   2      -0.00000000
   3      -0.00000000
   4      -0.00000000
   5       0.00000000
   6       0.00000000
   7       0.00000000
   8      -0.00000000
   9      -0.00000000
  10       0.00000000
  11      -0.00000000
  12      -0.02115688
  13       0.01778993
  14       0.00000000
  15       0.09183784
  16      -0.07722258
  17      -0.00000000
  18      -0.42999451
  19       0.36156433
  20      -0.00000000
  21      -0.02137438
  22       0.01797282
  23       0.00000000
  24      -0.00000000
  25      -0.00000000
  26      -0.11592323
  27       0.09747497
  28      -0.00000000
  29       0.00000000
  30       0.00000000
  31       0.00000000
  32       0.06310512
  33      -0.05306244
  34       0.00000000
  35      -0.00000000
  36      -0.00000000
  37       0.00000000
  38       0.00000000
  39      -0.00000000
  40      -0.00000000
  41      -0.00000000
  42       0.00000000
  43       0.00000000
  44      -0.00000000
  45       0.00000000
  46      -0.02115688
  47       0.01778993
  48      -0.00000000
  49       0.09183784
  50      -0.07722258
  51      -0.00000000
  52      -0.42999451
  53       0.36156433
  54      -0.00000000
  55      -0.02137438
  56       0.01797282
  57      -0.00000000
  58       0.00000000
  59       0.00000000
  60       0.11592323
  61      -0.09747497
  62       0.00000000
  63       0.00000000
  64      -0.00000000
  65      -0.00000000
  66      -0.06310512
  67       0.05306244
  68      -0.00000000
Ene=     3.54594E-03
Spin= Alpha
Occup=   0.0000000000
   1       0.00000000
   2       0.00000000
   3       0.00000000
   4      -0.00000000
   5       0.00000000
   6      -0.00000000
   7       0.00000000
   8       0.00000000
   9       0.00000000
  10      -0.00000000
  11       0.00000000
  12       0.01778993
  13       0.02115688
  14      -0.00000000
  15      -0.07722258
  16      -0.09183784
  17       0.00000000
  18       0.36156433
  19       0.42999451
  20      -0.00000000
  21       0.01797282
  22       0.02137438
  23      -0.00000000
  24      -0.00000000
  25      -0.00000000
  26       0.09747497
  27       0.11592323
  28      -0.00000000
  29      -0.00000000
  30      -0.00000000
  31      -0.00000000
  32      -0.05306244
  33      -0.06310512
  34       0.00000000
  35       0.00000000
  36       0.00000000
  37      -0.00000000
  38       0.00000000
  39      -0.00000000
  40       0.00000000
  41       0.00000000
  42      -0.00000000
  43      -0.00000000
  44       0.00000000
  45      -0.00000000
  46       0.01778993
  47       0.02115688
  48       0.00000000
  49      -0.07722258
  50      -0.09183784
  51       0.00000000
  52       0.36156433
  53       0.42999451
  54      -0.00000000
  55       0.01797282
  56       0.02137438
  57       0.00000000
  58       0.00000000
  59       0.00000000
  60      -0.09747497
  61      -0.11592323
  62       0.00000000
  63      -0.00000000
  64       0.00000000
  65       0.00000000
  66       0.05306244
  67       0.06310512
  68      -0.00000000
Ene=     5.44962E-03
Spin= Alpha
Occup=   0.0000000000
   1       0.00947604
   2       0.00476977
   3     -28.91836503
   4       2.58535293
   5       0.23374740
   6       0.17227436
   7       0.06636214
   8      -0.06248591
   9      -0.00567912
  10       0.00025605
  11      -0.15703269
  12       0.00000000
  13       0.00000000
  14      -0.09677665
  15      -0.00000000
  16       0.00000000
  17      -3.85933994
  18       0.00000000
  19      -0.00000000
  20       0.22810174
  21       0.00000000
  22      -0.00000000
  23      -0.49477583
  24      -0.60408342
  25      -0.60408342
  26       0.00000000
  27       0.00000000
  28       0.00000000
  29      -1.07671875
  30      -0.89769395
  31      -0.89769395
  32      -0.00000000
  33       0.00000000
  34      -0.00000000
  35      -0.00947604
  36      -0.00476977
  37      28.91836503
  38      -2.58535293
  39      -0.23374740
  40      -0.17227436
  41      -0.06636214
  42       0.06248591
  43       0.00567912
  44      -0.00025605
  45      -0.15703269
  46      -0.00000000
  47      -0.00000000
  48      -0.09677664
  49       0.00000000
  50      -0.00000000
  51      -3.85933994
  52      -0.00000000
  53       0.00000000
  54       0.22810174
  55      -0.00000000
  56       0.00000000
  57       0.49477583
  58       0.60408342
  59       0.60408342
  60       0.00000000
  61       0.00000000
  62      -0.00000000
  63       1.07671874
  64       0.89769395
  65       0.89769395
  66      -0.00000000
  67       0.00000000
  68      -0.00000000
Ene=     6.67107E-03
Spin= Alpha
Occup=   0.0000000000
   1       0.31254403
   2       6.69363195
   3      -0.42247550
   4      -0.59032880
   5       0.07250273
   6      -0.01919087
   7       0.00981555
   8      -0.00449382
   9       0.00029873
  10      -0.00008280
  11       0.39755218
  12      -0.00000000
  13      -0.00000000
  14     -33.51381943
  15      -0.00000001
  16      -0.00000001
  17       2.38375559
  18       0.00000000
  19       0.00000000
  20       0.53253528
  21       0.00000000
  22       0.00000000
  23      -0.02258548
  24      -0.04378229
  25      -0.04378229
  26      -0.00000000
  27      -0.00000000
  28       0.00000000
  29      -5.49134898
  30      -0.22323225
  31      -0.22323225
  32      -0.00000000
  33      -0.00000000
  34      -0.00000000
  35       0.31254403
  36       6.69363195
  37      -0.42247551
  38      -0.59032880
  39       0.07250273
  40      -0.01919087
  41       0.00981555
  42      -0.00449382
  43       0.00029873
  44      -0.00008280
  45      -0.39755218
  46       0.00000000
  47       0.00000000
  48      33.51381943
  49       0.00000001
  50       0.00000001
  51      -2.38375559
  52      -0.00000000
  53      -0.00000000
  54      -0.53253528
  55      -0.00000000
  56      -0.00000000
  57      -0.02258548
  58      -0.04378229
  59      -0.04378229
  60      -0.00000000
  61      -0.00000000
  62      -0.00000000
  63      -5.49134898
  64      -0.22323225
  65      -0.22323225
  66      -0.00000000
  67      -0.00000000
  68       0.00000000
Ene=     6.78629E-03
Spin= Alpha
Occup=   0.0000000000
   1       0.00000000
   2       0.00000000
   3       0.00000000
   4      -0.00000000
   5       0.00000000
   6      -0.00000000
   7       0.00000000
   8      -0.00000000
   9       0.00000000
  10      -0.00000000
  11       0.00000000
  12      -0.00113105
  13      -0.00028338
  14      -0.00000000
  15       0.00300379
  16       0.00075258
  17       0.00000000
  18      -2.58788194
  19      -0.64837810
  20       0.00000000
  21      -0.63181757
  22      -0.15829805
  23      -0.00000000
  24      -0.00000000
  25      -0.00000000
  26       0.03275147
  27       0.00820568
  28      -0.00000000
  29      -0.00000000
  30      -0.00000000
  31      -0.00000000
  32      -0.09685431
  33      -0.02426626
  34      -0.00000000
  35       0.00000000
  36       0.00000000
  37      -0.00000000
  38      -0.00000000
  39       0.00000000
  40      -0.00000000
  41       0.00000000
  42      -0.00000000
  43       0.00000000
  44      -0.00000000
  45      -0.00000000
  46       0.00113105
  47       0.00028338
  48       0.00000000
  49      -0.00300379
  50      -0.00075258
  51      -0.00000000
  52       2.58788194
  53       0.64837810
  54      -0.00000000
  55       0.63181757
  56       0.15829805
  57      -0.00000000
  58      -0.00000000
  59      -0.00000000
  60       0.03275147
  61       0.00820568
  62       0.00000000
  63      -0.00000000
  64      -0.00000000
  65      -0.00000000
  66      -0.09685431
  67      -0.02426626
  68       0.00000000
Ene=     6.78629E-03
Spin= Alpha
Occup=   0.0000000000
   1       0.00000000
   2       0.00000000
   3      -0.00000000
   4      -0.00000000
   5       0.00000000
   6      -0.00000000
   7       0.00000000
   8      -0.00000000
   9       0.00000000
  10      -0.00000000
  11       0.00000000
  12       0.00028338
  13      -0.00113105
  14      -0.00000000
  15      -0.00075258
  16       0.00300379
  17       0.00000000
  18       0.64837810
  19      -2.58788194
  20       0.00000000
  21       0.15829805
  22      -0.63181757
  23      -0.00000000
  24       0.00000000
  25       0.00000000
  26      -0.00820568
  27       0.03275147
  28      -0.00000000
  29      -0.00000000
  30      -0.00000000
  31      -0.00000000
  32       0.02426626
  33      -0.09685431
  34      -0.00000000
  35       0.00000000
  36       0.00000000
  37       0.00000000
  38      -0.00000000
  39       0.00000000
  40      -0.00000000
  41       0.00000000
  42      -0.00000000
  43       0.00000000
  44      -0.00000000
  45      -0.00000000
  46      -0.00028338
  47       0.00113105
  48       0.00000000
  49       0.00075258
  50      -0.00300379
  51      -0.00000000
  52      -0.64837810
  53       2.58788194
  54      -0.00000000
  55      -0.15829805
  56       0.63181757
  57      -0.00000000
  58      -0.00000000
  59      -0.00000000
  60      -0.00820568
  61       0.03275147
  62      -0.00000000
  63      -0.00000000
  64      -0.00000000
  65      -0.00000000
  66       0.02426626
  67      -0.09685431
  68       0.00000000
Ene=     9.13499E-03
Spin= Alpha
Occup=   0.0000000000
   1      -0.00000000
   2      -0.00000000
   3      -0.00000000
   4      -0.00000000
   5       0.00000000
   6      -0.00000000
   7      -0.00000000
   8       0.00000000
   9       0.00000000
  10      -0.00000000
  11      -0.00000000
  12      -0.02715430
  13       0.00291513
  14       0.00000000
  15       0.11911061
  16      -0.01278702
  17      -0.00000000
  18      -0.65102911
  19       0.06989069
  20      -0.00000000
  21       0.76567409
  22      -0.08219831
  23       0.00000000
  24       0.00000000
  25       0.00000000
  26      -0.13495195
  27       0.01448765
  28      -0.00000000
  29       0.00000000
  30       0.00000000
  31       0.00000000
  32       0.06810757
  33      -0.00731163
  34      -0.00000000
  35      -0.00000000
  36      -0.00000000
  37       0.00000000
  38       0.00000000
  39      -0.00000000
  40       0.00000000
  41       0.00000000
  42      -0.00000000
  43      -0.00000000
  44       0.00000000
  45       0.00000000
  46      -0.02715430
  47       0.00291513
  48      -0.00000000
  49       0.11911061
  50      -0.01278702
  51      -0.00000000
  52      -0.65102911
  53       0.06989069
  54      -0.00000000
  55       0.76567409
  56      -0.08219831
  57      -0.00000000
  58      -0.00000000
  59      -0.00000000
  60       0.13495195
  61      -0.01448765
  62       0.00000000
  63       0.00000000
  64      -0.00000000
  65      -0.00000000
  66      -0.06810757
  67       0.00731163
  68       0.00000000
Ene=     9.13499E-03
Spin= Alpha
Occup=   0.0000000000
   1       0.00000000
   2       0.00000000
   3      -0.00000000
   4      -0.00000000
   5      -0.00000000
   6      -0.00000000
   7      -0.00000000
   8       0.00000000
   9       0.00000000
  10      -0.00000000
  11       0.00000000
  12      -0.00291513
  13      -0.02715430
  14      -0.00000000
  15       0.01278702
  16       0.11911061
  17      -0.00000000
  18      -0.06989069
  19      -0.65102911
  20      -0.00000000
  21       0.08219831
  22       0.76567409
  23       0.00000000
  24       0.00000000
  25       0.00000000
  26      -0.01448765
  27      -0.13495195
  28      -0.00000000
  29      -0.00000000
  30       0.00000000
  31       0.00000000
  32       0.00731163
  33       0.06810757
  34       0.00000000
  35       0.00000000
  36       0.00000000
  37       0.00000000
  38       0.00000000
  39       0.00000000
  40       0.00000000
  41       0.00000000
  42      -0.00000000
  43      -0.00000000
  44       0.00000000
  45      -0.00000000
  46      -0.00291513
  47      -0.02715430
  48       0.00000000
  49       0.01278702
  50       0.11911061
  51      -0.00000000
  52      -0.06989069
  53      -0.65102911
  54      -0.00000000
  55       0.08219831
  56       0.76567409
  57      -0.00000000
  58      -0.00000000
  59      -0.00000000
  60       0.01448765
  61       0.13495195
  62       0.00000000
  63      -0.00000000
  64      -0.00000000
  65      -0.00000000
  66      -0.00731163
  67      -0.06810757
  68      -0.00000000
Ene=     1.04735E-02
Spin= Alpha
Occup=   0.0000000000
   1       0.00364026
   2       0.07547270
   3     137.85388785
   4      23.75407252
   5      -0.21975250
   6       0.07092204
   7       0.00283718
   8      -0.00897028
   9      -0.00161634
  10       0.00014882
  11      -0.08076481
  12      -0.00000000
  13      -0.00000000
  14      -0.29624049
  15       0.00000001
  16      -0.00000000
  17      22.18506922
  18      -0.00000000
  19       0.00000000
  20       7.60819893
  21       0.00000000
  22      -0.00000000
  23      -0.58424408
  24      -0.02803426
  25      -0.02803426
  26      -0.00000000
  27      -0.00000000
  28      -0.00000000
  29      -0.61682160
  30      -1.46202362
  31      -1.46202362
  32       0.00000000
  33      -0.00000000
  34      -0.00000000
  35      -0.00364026
  36      -0.07547270
  37    -137.85388785
  38     -23.75407251
  39       0.21975250
  40      -0.07092204
  41      -0.00283718
  42       0.00897028
  43       0.00161634
  44      -0.00014882
  45      -0.08076481
  46       0.00000000
  47       0.00000000
  48      -0.29624047
  49      -0.00000001
  50       0.00000000
  51      22.18506922
  52       0.00000000
  53      -0.00000000
  54       7.60819893
  55      -0.00000000
  56       0.00000000
  57       0.58424408
  58       0.02803426
  59       0.02803426
  60      -0.00000000
  61      -0.00000000
  62       0.00000000
  63       0.61682160
  64       1.46202362
  65       1.46202362
  66       0.00000000
  67      -0.00000000
  68       0.00000000
Ene=     1.08496E-02
Spin= Alpha
Occup=   0.0000000000
   1       0.11101801
   2      -2.75434954
   3       0.87927488
   4      -1.60283966
   5       0.95415546
   6      -0.06222123
   7       0.09803232
   8      -0.05873919
   9      -0.00040769
  10      -0.00046723
  11      -0.13917325
  12       0.00000000
  13       0.00000000
  14      14.22913566
  15       0.00000000
  16       0.00000000
  17      -0.62322908
  18      -0.00000000
  19      -0.00000000
  20       0.21599237
  21       0.00000000
  22       0.00000000
  23      -0.02897609
  24      -0.01738733
  25      -0.01738733
  26       0.00000000
  27       0.00000000
  28      -0.00000000
  29       2.24846181
  30      -0.00600273
  31      -0.00600273
  32       0.00000000
  33       0.00000000
  34       0.00000000
  35       0.11101801
  36      -2.75434954
  37       0.87927484
  38      -1.60283967
  39       0.95415546
  40      -0.06222123
  41       0.09803232
  42      -0.05873919
  43      -0.00040769
  44      -0.00046723
  45       0.13917325
  46      -0.00000000
  47      -0.00000000
  48     -14.22913566
  49      -0.00000000
  50      -0.00000000
  51       0.62322908
  52       0.00000000
  53       0.00000000
  54      -0.21599237
  55      -0.00000000
  56      -0.00000000
  57      -0.02897609
  58      -0.01738733
  59      -0.01738733
  60       0.00000000
  61       0.00000000
  62       0.00000000
  63       2.24846181
  64      -0.00600273
  65      -0.00600273
  66       0.00000000
  67       0.00000000
  68      -0.00000000
Ene=     1.46724E-02
Spin= Alpha
Occup=   0.0000000000
   1      -0.00000000
   2      -0.00000000
   3       0.00000000
   4      -0.00000000
   5      -0.00000000
   6       0.00000000
   7      -0.00000000
   8       0.00000000
   9      -0.00000000
  10       0.00000000
  11      -0.00000000
  12      -0.00100017
  13       0.00018894
  14       0.00000001
  15       0.00076767
  16      -0.00014502
  17      -0.00000000
  18      -3.74953256
  19       0.70831997
  20       0.00000000
  21       2.33065618
  22      -0.44028163
  23      -0.00000000
  24       0.00000000
  25       0.00000000
  26       0.03830791
  27      -0.00723670
  28       0.00000000
  29       0.00000000
  30       0.00000000
  31       0.00000000
  32      -0.11577774
  33       0.02187144
  34      -0.00000000
  35      -0.00000000
  36      -0.00000000
  37      -0.00000000
  38       0.00000000
  39      -0.00000000
  40       0.00000000
  41      -0.00000000
  42       0.00000000
  43      -0.00000000
  44       0.00000000
  45       0.00000000
  46       0.00100017
  47      -0.00018894
  48      -0.00000001
  49      -0.00076767
  50       0.00014502
  51       0.00000000
  52       3.74953256
  53      -0.70831997
  54      -0.00000000
  55      -2.33065618
  56       0.44028163
  57       0.00000000
  58       0.00000000
  59       0.00000000
  60       0.03830791
  61      -0.00723670
  62      -0.00000000
  63       0.00000000
  64       0.00000000
  65       0.00000000
  66      -0.11577774
  67       0.02187144
  68       0.00000000
Ene=     1.46724E-02
Spin= Alpha
Occup=   0.0000000000
   1      -0.00000000
   2      -0.00000000
   3       0.00000000
   4       0.00000000
   5      -0.00000000
   6       0.00000000
   7      -0.00000000
   8       0.00000000
   9      -0.00000000
  10       0.00000000
  11      -0.00000000
  12      -0.00018894
  13      -0.00100017
  14       0.00000001
  15       0.00014502
  16       0.00076767
  17      -0.00000000
  18      -0.70831997
  19      -3.74953256
  20       0.00000000
  21       0.44028163
  22       2.33065618
  23       0.00000000
  24       0.00000000
  25       0.00000000
  26       0.00723670
  27       0.03830791
  28       0.00000000
  29       0.00000000
  30       0.00000000
  31       0.00000000
  32      -0.02187144
  33      -0.11577774
  34      -0.00000000
  35      -0.00000000
  36      -0.00000000
  37       0.00000000
  38      -0.00000000
  39      -0.00000000
  40       0.00000000
  41      -0.00000000
  42       0.00000000
  43      -0.00000000
  44       0.00000000
  45       0.00000000
  46       0.00018894
  47       0.00100017
  48      -0.00000001
  49      -0.00014502
  50      -0.00076767
  51       0.00000000
  52       0.70831997
  53       3.74953256
  54      -0.00000000
  55      -0.44028163
  56      -2.33065618
  57      -0.00000000
  58       0.00000000
  59       0.00000000
  60       0.00723670
  61       0.03830791
  62      -0.00000000
  63       0.00000000
  64       0.00000000
  65       0.00000000
  66      -0.02187144
  67      -0.11577774
  68       0.00000000
Ene=     1.48218E-02
Spin= Alpha
Occup=   0.0000000000
   1      -0.59254020
   2      -6.56151579
   3       1.36300809
   4       0.03918842
   5      -0.64522613
   6       0.08852106
   7      -0.04929972
   8       0.02369694
   9      -0.00116108
  10       0.00037828
  11      -0.39725370
  12       0.00000000
  13       0.00000000
  14      30.37211300
  15       0.00000001
  16       0.00000001
  17      -3.20046074
  18       0.00000000
  19       0.00000000
  20       1.89156935
  21      -0.00000000
  22      -0.00000000
  23       0.06816657
  24       0.08252828
  25       0.08252828
  26       0.00000000
  27       0.00000000
  28      -0.00000000
  29       5.13067420
  30       0.38608796
  31       0.38608796
  32       0.00000000
  33       0.00000000
  34       0.00000000
  35      -0.59254020
  36      -6.56151579
  37       1.36300811
  38       0.03918842
  39      -0.64522613
  40       0.08852106
  41      -0.04929972
  42       0.02369694
  43      -0.00116108
  44       0.00037828
  45       0.39725370
  46      -0.00000000
  47      -0.00000000
  48     -30.37211300
  49      -0.00000001
  50      -0.00000001
  51       3.20046074
  52      -0.00000000
  53      -0.00000000
  54      -1.89156935
  55       0.00000000
  56       0.00000000
  57       0.06816657
  58       0.08252828
  59       0.08252828
  60       0.00000000
  61       0.00000000
  62       0.00000000
  63       5.13067420
  64       0.38608796
  65       0.38608796
  66       0.00000000
  67       0.00000000
  68      -0.00000000
Ene=     1.53353E-02
Spin= Alpha
Occup=   0.0000000000
   1      -0.00836815
   2      -0.06218309
   3     -74.42600135
   4       1.69559471
   5       1.31835386
   6      -0.01922925
   7       0.12590787
   8      -0.07911693
   9      -0.00166338
  10      -0.00047159
  11       0.15263659
  12       0.00000000
  13       0.00000000
  14       0.34103884
  15      -0.00000000
  16       0.00000000
  17     -13.03337370
  18      -0.00000000
  19       0.00000000
  20       1.52088049
  21       0.00000000
  22      -0.00000000
  23       0.70419498
  24       0.37178345
  25       0.37178345
  26       0.00000000
  27       0.00000000
  28       0.00000000
  29       1.22851560
  30       1.70785385
  31       1.70785385
  32      -0.00000000
  33       0.00000000
  34      -0.00000000
  35       0.00836815
  36       0.06218309
  37      74.42600135
  38      -1.69559471
  39      -1.31835386
  40       0.01922925
  41      -0.12590787
  42       0.07911693
  43       0.00166338
  44       0.00047159
  45       0.15263659
  46      -0.00000000
  47      -0.00000000
  48       0.34103883
  49       0.00000000
  50      -0.00000000
  51     -13.03337370
  52       0.00000000
  53      -0.00000000
  54       1.52088050
  55      -0.00000000
  56       0.00000000
  57      -0.70419498
  58      -0.37178345
  59      -0.37178345
  60       0.00000000
  61       0.00000000
  62      -0.00000000
  63      -1.22851559
  64      -1.70785385
  65      -1.70785385
  66      -0.00000000
  67       0.00000000
  68       0.00000000
Ene=     2.18184E-02
Spin= Alpha
Occup=   0.0000000000
   1      -0.02166590
   2      -0.14891312
   3    -221.38239249
   4      39.78979768
   5      -1.64574788
   6       0.11868782
   7      -0.10016128
   8       0.05290930
   9      -0.00076963
  10       0.00058282
  11       0.40143905
  12       0.00000000
  13       0.00000000
  14       0.66310472
  15      -0.00000001
  16       0.00000000
  17     -36.94648787
  18       0.00000000
  19      -0.00000000
  20      11.07581473
  21      -0.00000000
  22       0.00000000
  23       1.84024090
  24       1.12775055
  25       1.12775055
  26       0.00000000
  27       0.00000000
  28       0.00000000
  29       2.84267224
  30       3.89398696
  31       3.89398696
  32      -0.00000000
  33       0.00000000
  34      -0.00000000
  35       0.02166590
  36       0.14891311
  37     221.38239249
  38     -39.78979768
  39       1.64574788
  40      -0.11868782
  41       0.10016128
  42      -0.05290930
  43       0.00076963
  44      -0.00058282
  45       0.40143906
  46      -0.00000000
  47      -0.00000000
  48       0.66310467
  49       0.00000001
  50      -0.00000000
  51     -36.94648787
  52      -0.00000000
  53       0.00000000
  54      11.07581473
  55       0.00000000
  56      -0.00000000
  57      -1.84024090
  58      -1.12775055
  59      -1.12775055
  60       0.00000000
  61       0.00000000
  62      -0.00000000
  63      -2.84267223
  64      -3.89398696
  65      -3.89398696
  66      -0.00000000
  67       0.00000000
  68       0.00000000
Ene=     2.63991E-02
Spin= Alpha
Occup=   0.0000000000
   1       2.96262469
   2      -3.62721210
   3      -4.15335508
   4       1.89269184
   5      -0.41562195
   6      -0.14423365
   7      -0.00952460
   8       0.02128029
   9       0.00373385
  10      -0.00033501
  11      -0.03927034
  12       0.00000000