[Molden Format]
[Atoms] AU
E+       1       4     0.00000000     0.00000000     0.00000000
E+       2       4    19.00000000     0.00000000     0.00000000
[GTO]
  1 0
s  1 1.00
   1.0000000000E-04   1.0000000000E+00
s  1 1.00
   3.0000000000E-04   1.0000000000E+00
s  1 1.00
   9.0000000000E-04   1.0000000000E+00
s  1 1.00
   2.7000000000E-03   1.0000000000E+00
s  1 1.00
   8.1000000000E-03   1.0000000000E+00
s  1 1.00
   2.4300000000E-02   1.0000000000E+00
s  1 1.00
   7.2900000000E-02   1.0000000000E+00
s  1 1.00
   2.1870000000E-01   1.0000000000E+00
s  1 1.00
   6.5610000000E-01   1.0000000000E+00
s  1 1.00
   1.9683000000E+00   1.0000000000E+00
p  1 1.00
   1.0000000000E-04   1.0000000000E+00
p  1 1.00
   3.0000000000E-04   1.0000000000E+00
p  1 1.00
   9.0000000000E-04   1.0000000000E+00
p  1 1.00
   2.7000000000E-03   1.0000000000E+00
d  1 1.00
   1.0000000000E-04   1.0000000000E+00
d  1 1.00
   3.0000000000E-04   1.0000000000E+00
 
  2 0
s  1 1.00
   1.0000000000E-04   1.0000000000E+00
s  1 1.00
   3.0000000000E-04   1.0000000000E+00
s  1 1.00
   9.0000000000E-04   1.0000000000E+00
s  1 1.00
   2.7000000000E-03   1.0000000000E+00
s  1 1.00
   8.1000000000E-03   1.0000000000E+00
s  1 1.00
   2.4300000000E-02   1.0000000000E+00
s  1 1.00
   7.2900000000E-02   1.0000000000E+00
s  1 1.00
   2.1870000000E-01   1.0000000000E+00
s  1 1.00
   6.5610000000E-01   1.0000000000E+00
s  1 1.00
   1.9683000000E+00   1.0000000000E+00
p  1 1.00
   1.0000000000E-04   1.0000000000E+00
p  1 1.00
   3.0000000000E-04   1.0000000000E+00
p  1 1.00
   9.0000000000E-04   1.0000000000E+00
p  1 1.00
   2.7000000000E-03   1.0000000000E+00
d  1 1.00
   1.0000000000E-04   1.0000000000E+00
d  1 1.00
   3.0000000000E-04   1.0000000000E+00
 
 
[MO]
Ene=    -4.83818E-03
Spin= Alpha
Occup=   1.0000000000
   1       0.09854675
   2      -0.09006478
   3       0.04320346
   4       0.19113691
   5       0.22974080
   6       0.19795937
   7       0.11896610
   8      -0.09640213
   9      -0.00659952
  10       0.00009472
  11      -0.56611026
  12       0.00000000
  13       0.00000000
  14       0.22126728
  15      -0.00000000
  16      -0.00000000
  17      -0.02145666
  18       0.00000000
  19       0.00000000
  20       0.03147626
  21      -0.00000000
  22      -0.00000000
  23      -0.09288655
  24       0.00132907
  25       0.00132907
  26       0.00000000
  27       0.00000000
  28      -0.00000000
  29       0.06795346
  30       0.00646068
  31       0.00646068
  32      -0.00000000
  33      -0.00000000
  34       0.00000000
  35       0.09854675
  36      -0.09006478
  37       0.04320346
  38       0.19113691
  39       0.22974080
  40       0.19795937
  41       0.11896610
  42      -0.09640213
  43      -0.00659952
  44       0.00009472
  45       0.56611026
  46      -0.00000000
  47      -0.00000000
  48      -0.22126728
  49       0.00000000
  50       0.00000000
  51       0.02145666
  52       0.00000000
  53      -0.00000000
  54      -0.03147626
  55      -0.00000000
  56       0.00000000
  57      -0.09288655
  58       0.00132907
  59       0.00132907
  60       0.00000000
  61       0.00000000
  62       0.00000000
  63       0.06795346
  64       0.00646068
  65       0.00646068
  66      -0.00000000
  67      -0.00000000
  68      -0.00000000
Ene=    -1.03397E-03
Spin= Alpha
Occup=   0.0000000000
   1       0.00125338
   2      -0.00004055
   3      -0.84853829
   4      -0.27556495
   5      -0.28571534
   6      -0.22093658
   7      -0.12360388
   8       0.10138109
   9       0.00724148
  10      -0.00013751
  11      -0.01185564
  12       0.00000000
  13       0.00000000
  14      -0.00120264
  15      -0.00000000
  16       0.00000000
  17      -0.20085641
  18       0.00000000
  19       0.00000000
  20       0.07132539
  21      -0.00000000
  22      -0.00000000
  23      -0.01815053
  24      -0.02828568
  25      -0.02828568
  26       0.00000000
  27      -0.00000000
  28      -0.00000000
  29      -0.04345977
  30      -0.02647742
  31      -0.02647742
  32      -0.00000000
  33       0.00000000
  34       0.00000000
  35      -0.00125338
  36       0.00004055
  37       0.84853829
  38       0.27556495
  39       0.28571534
  40       0.22093658
  41       0.12360388
  42      -0.10138109
  43      -0.00724148
  44       0.00013751
  45      -0.01185564
  46      -0.00000000
  47      -0.00000000
  48      -0.00120264
  49       0.00000000
  50      -0.00000000
  51      -0.20085641
  52      -0.00000000
  53       0.00000000
  54       0.07132539
  55       0.00000000
  56      -0.00000000
  57       0.01815053
  58       0.02828568
  59       0.02828568
  60       0.00000000
  61       0.00000000
  62      -0.00000000
  63       0.04345977
  64       0.02647742
  65       0.02647742
  66      -0.00000000
  67       0.00000000
  68       0.00000000
Ene=     3.20525E-03
Spin= Alpha
Occup=   0.0000000000
   1       0.87787669
   2      -0.14356284
   3      -1.16304449
   4       0.79972253
   5      -0.07513130
   6       0.11395722
   7       0.02253350
   8      -0.02597513
   9      -0.00315879
  10       0.00021996
  11      -3.86257754
  12       0.00000000
  13       0.00000000
  14       1.37807502
  15       0.00000000
  16      -0.00000000
  17      -0.40398758
  18       0.00000000
  19       0.00000000
  20       0.09259537
  21      -0.00000000
  22      -0.00000000
  23      -0.65956325
  24      -0.02012916
  25      -0.02012916
  26       0.00000000
  27       0.00000000
  28       0.00000000
  29       0.28253789
  30      -0.08509402
  31      -0.08509402
  32       0.00000000
  33      -0.00000000
  34       0.00000000
  35       0.87787669
  36      -0.14356284
  37      -1.16304449
  38       0.79972253
  39      -0.07513130
  40       0.11395722
  41       0.02253350
  42      -0.02597513
  43      -0.00315879
  44       0.00021996
  45       3.86257754
  46      -0.00000000
  47      -0.00000000
  48      -1.37807502
  49      -0.00000000
  50       0.00000000
  51       0.40398758
  52      -0.00000000
  53      -0.00000000
  54      -0.09259537
  55       0.00000000
  56       0.00000000
  57      -0.65956325
  58      -0.02012916
  59      -0.02012916
  60       0.00000000
  61       0.00000000
  62      -0.00000000
  63       0.28253789
  64      -0.08509402
  65      -0.08509402
  66       0.00000000
  67      -0.00000000
  68      -0.00000000
Ene=     3.92779E-03
Spin= Alpha
Occup=   0.0000000000
   1       0.00000000
   2       0.00000000
   3       0.00000000
   4      -0.00000000
   5       0.00000000
   6      -0.00000000
   7      -0.00000000
   8       0.00000000
   9      -0.00000000
  10       0.00000000
  11      -0.00000000
  12       0.00150780
  13      -0.02957940
  14      -0.00000000
  15      -0.00606323
  16       0.11894600
  17       0.00000000
  18       0.02619557
  19      -0.51389395
  20      -0.00000000
  21       0.00534075
  22      -0.10477269
  23      -0.00000000
  24      -0.00000000
  25      -0.00000000
  26       0.00336746
  27      -0.06606143
  28       0.00000000
  29      -0.00000000
  30      -0.00000000
  31      -0.00000000
  32      -0.00109560
  33       0.02149299
  34      -0.00000000
  35       0.00000000
  36       0.00000000
  37      -0.00000000
  38       0.00000000
  39      -0.00000000
  40       0.00000000
  41       0.00000000
  42      -0.00000000
  43      -0.00000000
  44       0.00000000
  45       0.00000000
  46       0.00150780
  47      -0.02957940
  48       0.00000000
  49      -0.00606323
  50       0.11894600
  51       0.00000000
  52       0.02619557
  53      -0.51389395
  54      -0.00000000
  55       0.00534075
  56      -0.10477269
  57      -0.00000000
  58      -0.00000000
  59      -0.00000000
  60      -0.00336746
  61       0.06606143
  62      -0.00000000
  63      -0.00000000
  64       0.00000000
  65       0.00000000
  66       0.00109560
  67      -0.02149299
  68       0.00000000
Ene=     3.92779E-03
Spin= Alpha
Occup=   0.0000000000
   1      -0.00000000
   2       0.00000000
   3       0.00000000
   4      -0.00000000
   5      -0.00000000
   6       0.00000000
   7      -0.00000000
   8       0.00000000
   9      -0.00000000
  10       0.00000000
  11       0.00000000
  12       0.02957940
  13       0.00150780
  14      -0.00000000
  15      -0.11894600
  16      -0.00606323
  17       0.00000000
  18       0.51389395
  19       0.02619557
  20      -0.00000000
  21       0.10477269
  22       0.00534075
  23       0.00000000
  24      -0.00000000
  25      -0.00000000
  26       0.06606143
  27       0.00336746
  28      -0.00000000
  29      -0.00000000
  30      -0.00000000
  31      -0.00000000
  32      -0.02149299
  33      -0.00109560
  34       0.00000000
  35      -0.00000000
  36       0.00000000
  37      -0.00000000
  38       0.00000000
  39      -0.00000000
  40       0.00000000
  41       0.00000000
  42      -0.00000000
  43      -0.00000000
  44       0.00000000
  45      -0.00000000
  46       0.02957940
  47       0.00150780
  48       0.00000000
  49      -0.11894600
  50      -0.00606323
  51       0.00000000
  52       0.51389395
  53       0.02619557
  54      -0.00000000
  55       0.10477269
  56       0.00534075
  57       0.00000000
  58      -0.00000000
  59      -0.00000000
  60      -0.06606143
  61      -0.00336746
  62       0.00000000
  63      -0.00000000
  64      -0.00000000
  65      -0.00000000
  66       0.02149299
  67       0.00109560
  68      -0.00000000
Ene=     5.35613E-03
Spin= Alpha
Occup=   0.0000000000
   1       0.01407986
   2       0.00577891
   3      -8.68208619
   4       0.82293518
   5       0.25527822
   6       0.08363326
   7       0.06899252
   8      -0.05203216
   9      -0.00297566
  10      -0.00004019
  11      -0.13274410
  12       0.00000000
  13       0.00000000
  14      -0.04453045
  15      -0.00000000
  16      -0.00000000
  17      -1.90755506
  18       0.00000000
  19       0.00000000
  20       0.31333452
  21       0.00000000
  22      -0.00000000
  23      -0.21640634
  24      -0.30456438
  25      -0.30456438
  26       0.00000000
  27      -0.00000000
  28       0.00000000
  29      -0.50353225
  30      -0.35096962
  31      -0.35096962
  32      -0.00000000
  33      -0.00000000
  34      -0.00000000
  35      -0.01407986
  36      -0.00577891
  37       8.68208619
  38      -0.82293518
  39      -0.25527822
  40      -0.08363326
  41      -0.06899252
  42       0.05203216
  43       0.00297566
  44       0.00004019
  45      -0.13274410
  46      -0.00000000
  47      -0.00000000
  48      -0.04453045
  49       0.00000000
  50       0.00000000
  51      -1.90755506
  52      -0.00000000
  53      -0.00000000
  54       0.31333452
  55       0.00000000
  56       0.00000000
  57       0.21640633
  58       0.30456438
  59       0.30456438
  60       0.00000000
  61       0.00000000
  62      -0.00000000
  63       0.50353225
  64       0.35096962
  65       0.35096962
  66      -0.00000000
  67      -0.00000000
  68       0.00000000
Ene=     6.71122E-03
Spin= Alpha
Occup=   0.0000000000
   1       2.37375174
   2      -1.50622498
   3       0.04933766
   4       0.81852955
   5      -0.25419911
   6       0.04718662
   7      -0.02667921
   8       0.01209425
   9      -0.00080960
  10       0.00022392
  11     -13.68051602
  12       0.00000000
  13       0.00000000
  14       3.87927415
  15       0.00000000
  16       0.00000000
  17      -0.89723988
  18       0.00000000
  19       0.00000000
  20      -0.51121772
  21       0.00000000
  22       0.00000000
  23      -2.23559448
  24       0.03325699
  25       0.03325699
  26       0.00000000
  27       0.00000000
  28       0.00000000
  29       1.17330255
  30       0.13573381
  31       0.13573381
  32       0.00000000
  33       0.00000000
  34       0.00000000
  35       2.37375174
  36      -1.50622498
  37       0.04933766
  38       0.81852955
  39      -0.25419911
  40       0.04718662
  41      -0.02667921
  42       0.01209425
  43      -0.00080960
  44       0.00022392
  45      13.68051602
  46      -0.00000000
  47      -0.00000000
  48      -3.87927415
  49      -0.00000000
  50      -0.00000000
  51       0.89723988
  52      -0.00000000
  53      -0.00000000
  54       0.51121772
  55      -0.00000000
  56      -0.00000000
  57      -2.23559448
  58       0.03325699
  59       0.03325699
  60       0.00000000
  61       0.00000000
  62      -0.00000000
  63       1.17330255
  64       0.13573381
  65       0.13573381
  66       0.00000000
  67       0.00000000
  68      -0.00000000
Ene=     7.04844E-03
Spin= Alpha
Occup=   0.0000000000
   1      -0.00000000
   2       0.00000000
   3      -0.00000000
   4       0.00000000
   5      -0.00000000
   6       0.00000000
   7      -0.00000000
   8       0.00000000
   9      -0.00000000
  10       0.00000000
  11       0.00000000
  12       0.07472759
  13      -0.21380657
  14       0.00000000
  15       1.36126934
  16      -3.89479094
  17      -0.00000000
  18      -0.38434044
  19       1.09965429
  20      -0.00000000
  21      -0.20482695
  22       0.58603989
  23       0.00000000
  24       0.00000000
  25       0.00000000
  26       0.01385620
  27      -0.03964462
  28      -0.00000000
  29       0.00000000
  30       0.00000000
  31       0.00000000
  32       0.20323944
  33      -0.58149779
  34       0.00000000
  35       0.00000000
  36      -0.00000000
  37       0.00000000
  38       0.00000000
  39      -0.00000000
  40       0.00000000
  41       0.00000000
  42      -0.00000000
  43      -0.00000000
  44       0.00000000
  45      -0.00000000
  46      -0.07472759
  47       0.21380657
  48       0.00000000
  49      -1.36126934
  50       3.89479094
  51      -0.00000000
  52       0.38434044
  53      -1.09965429
  54       0.00000000
  55       0.20482695
  56      -0.58603989
  57       0.00000000
  58      -0.00000000
  59      -0.00000000
  60       0.01385620
  61      -0.03964462
  62       0.00000000
  63      -0.00000000
  64      -0.00000000
  65      -0.00000000
  66       0.20323944
  67      -0.58149779
  68      -0.00000000
Ene=     7.04844E-03
Spin= Alpha
Occup=   0.0000000000
   1       0.00000000
   2      -0.00000000
   3      -0.00000000
   4      -0.00000000
   5       0.00000000
   6      -0.00000000
   7       0.00000000
   8      -0.00000000
   9       0.00000000
  10      -0.00000000
  11      -0.00000000
  12      -0.21380657
  13      -0.07472759
  14      -0.00000000
  15      -3.89479094
  16      -1.36126934
  17      -0.00000000
  18       1.09965429
  19       0.38434044
  20       0.00000000
  21       0.58603989
  22       0.20482695
  23      -0.00000000
  24       0.00000000
  25       0.00000000
  26      -0.03964462
  27      -0.01385620
  28      -0.00000000
  29      -0.00000000
  30       0.00000000
  31       0.00000000
  32      -0.58149779
  33      -0.20323944
  34       0.00000000
  35       0.00000000
  36       0.00000000
  37       0.00000000
  38      -0.00000000
  39       0.00000000
  40      -0.00000000
  41       0.00000000
  42      -0.00000000
  43      -0.00000000
  44       0.00000000
  45       0.00000000
  46       0.21380657
  47       0.07472759
  48      -0.00000000
  49       3.89479094
  50       1.36126934
  51      -0.00000000
  52      -1.09965429
  53      -0.38434044
  54      -0.00000000
  55      -0.58603989
  56      -0.20482695
  57      -0.00000000
  58       0.00000000
  59       0.00000000
  60      -0.03964462
  61      -0.01385620
  62       0.00000000
  63       0.00000000
  64       0.00000000
  65       0.00000000
  66      -0.58149779
  67      -0.20323944
  68      -0.00000000
Ene=     1.00725E-02
Spin= Alpha
Occup=   0.0000000000
   1       0.00000000
   2      -0.00000000
   3      -0.00000000
   4      -0.00000000
   5       0.00000000
   6      -0.00000000
   7       0.00000000
   8      -0.00000000
   9       0.00000000
  10      -0.00000000
  11      -0.00000000
  12       0.03552889
  13       0.01003115
  14       0.00000000
  15      -0.14251342
  16      -0.04023691
  17      -0.00000000
  18       0.72429440
  19       0.20449564
  20       0.00000000
  21      -0.80998338
  22      -0.22868887
  23      -0.00000000
  24       0.00000000
  25       0.00000000
  26       0.06426320
  27       0.01814393
  28      -0.00000000
  29       0.00000000
  30       0.00000000
  31       0.00000000
  32      -0.01055689
  33      -0.00298061
  34       0.00000000
  35       0.00000000
  36      -0.00000000
  37       0.00000000
  38       0.00000000
  39      -0.00000000
  40       0.00000000
  41      -0.00000000
  42       0.00000000
  43       0.00000000
  44       0.00000000
  45       0.00000000
  46       0.03552889
  47       0.01003115
  48      -0.00000000
  49      -0.14251342
  50      -0.04023691
  51      -0.00000000
  52       0.72429440
  53       0.20449564
  54      -0.00000000
  55      -0.80998338
  56      -0.22868887
  57      -0.00000000
  58      -0.00000000
  59       0.00000000
  60      -0.06426320
  61      -0.01814393
  62       0.00000000
  63       0.00000000
  64       0.00000000
  65      -0.00000000
  66       0.01055689
  67       0.00298061
  68      -0.00000000
Ene=     1.00725E-02
Spin= Alpha
Occup=   0.0000000000
   1       0.00000000
   2      -0.00000000
   3       0.00000000
   4       0.00000000
   5      -0.00000000
   6       0.00000000
   7      -0.00000000
   8      -0.00000000
   9       0.00000000
  10      -0.00000000
  11      -0.00000000
  12      -0.01003115
  13       0.03552889
  14       0.00000000
  15       0.04023691
  16      -0.14251342
  17       0.00000000
  18      -0.20449564
  19       0.72429440
  20       0.00000000
  21       0.22868887
  22      -0.80998338
  23      -0.00000000
  24      -0.00000000
  25       0.00000000
  26      -0.01814393
  27       0.06426320
  28      -0.00000000
  29       0.00000000
  30      -0.00000000
  31      -0.00000000
  32       0.00298061
  33      -0.01055689
  34       0.00000000
  35       0.00000000
  36      -0.00000000
  37      -0.00000000
  38      -0.00000000
  39       0.00000000
  40      -0.00000000
  41      -0.00000000
  42       0.00000000
  43       0.00000000
  44       0.00000000
  45       0.00000000
  46      -0.01003115
  47       0.03552889
  48      -0.00000000
  49       0.04023691
  50      -0.14251342
  51       0.00000000
  52      -0.20449564
  53       0.72429440
  54       0.00000000
  55       0.22868887
  56      -0.80998338
  57      -0.00000000
  58       0.00000000
  59       0.00000000
  60       0.01814393
  61      -0.06426320
  62       0.00000000
  63       0.00000000
  64       0.00000000
  65       0.00000000
  66      -0.00298061
  67       0.01055689
  68      -0.00000000
Ene=     1.04271E-02
Spin= Alpha
Occup=   0.0000000000
   1       0.00340375
   2      -0.04866238
   3     -20.29841439
   4      -2.57470156
   5      -0.00513511
   6      -0.04166020
   7      -0.01756069
   8       0.01526749
   9       0.00126341
  10      -0.00004276
  11      -0.03255497
  12       0.00000000
  13      -0.00000000
  14       0.15816063
  15      -0.00000000
  16      -0.00000000
  17      -5.59550025
  18       0.00000000
  19       0.00000000
  20      -2.64156599
  21      -0.00000000
  22      -0.00000000
  23       0.07020148
  24      -0.18192765
  25      -0.18192765
  26       0.00000000
  27       0.00000000
  28       0.00000000
  29      -0.08521483
  30       0.29540596
  31       0.29540596
  32      -0.00000000
  33      -0.00000000
  34      -0.00000000
  35      -0.00340375
  36       0.04866238
  37      20.29841439
  38       2.57470156
  39       0.00513511
  40       0.04166020
  41       0.01756069
  42      -0.01526749
  43      -0.00126341
  44       0.00004276
  45      -0.03255497
  46      -0.00000000
  47       0.00000000
  48       0.15816063
  49       0.00000000
  50       0.00000000
  51      -5.59550025
  52      -0.00000000
  53      -0.00000000
  54      -2.64156599
  55       0.00000000
  56       0.00000000
  57      -0.07020148
  58       0.18192765
  59       0.18192765
  60       0.00000000
  61      -0.00000000
  62      -0.00000000
  63       0.08521483
  64      -0.29540596
  65      -0.29540596
  66      -0.00000000
  67      -0.00000000
  68       0.00000000
Ene=     1.31059E-02
Spin= Alpha
Occup=   0.0000000000
   1      -0.21152991
   2       0.21746958
   3      -0.43454616
   4       1.68991182
   5      -1.32605218
   6       0.09260842
   7      -0.13872677
   8       0.07833707
   9      -0.00021042
  10       0.00073489
  11      -0.67892220
  12       0.00000000
  13       0.00000000
  14      -1.23994377
  15       0.00000000
  16       0.00000000
  17      -0.18675782
  18      -0.00000000
  19      -0.00000000
  20       0.22404551
  21       0.00000000
  22       0.00000000
  23      -0.05744391
  24       0.05052432
  25       0.05052432
  26       0.00000000
  27       0.00000000
  28      -0.00000000
  29      -0.22566928
  30       0.14549611
  31       0.14549611
  32       0.00000000
  33       0.00000000
  34       0.00000000
  35      -0.21152991
  36       0.21746958
  37      -0.43454616
  38       1.68991182
  39      -1.32605218
  40       0.09260842
  41      -0.13872677
  42       0.07833707
  43      -0.00021042
  44       0.00073489
  45       0.67892220
  46      -0.00000000
  47      -0.00000000
  48       1.23994377
  49      -0.00000000
  50      -0.00000000
  51       0.18675782
  52       0.00000000
  53       0.00000000
  54      -0.22404551
  55      -0.00000000
  56      -0.00000000
  57      -0.05744391
  58       0.05052432
  59       0.05052432
  60       0.00000000
  61       0.00000000
  62       0.00000000
  63      -0.22566928
  64       0.14549611
  65       0.14549611
  66       0.00000000
  67       0.00000000
  68      -0.00000000
Ene=     1.51667E-02
Spin= Alpha
Occup=   0.0000000000
   1      -0.01616657
   2      -0.06253017
   3      -4.04384174
   4      -3.77706555
   5       1.24306135
   6      -0.10165262
   7       0.12164157
   8      -0.06698765
   9       0.00043529
  10      -0.00066441
  11       0.15115188
  12       0.00000000
  13      -0.00000000
  14       0.27670789
  15      -0.00000000
  16      -0.00000000
  17      -2.29175573
  18       0.00000000
  19       0.00000000
  20      -0.68300388
  21      -0.00000000
  22      -0.00000000
  23       0.36138247
  24       0.23744075
  25       0.23744075
  26       0.00000000
  27      -0.00000000
  28       0.00000000
  29       0.68092527
  30       0.82832415
  31       0.82832415
  32      -0.00000000
  33      -0.00000000
  34      -0.00000000
  35       0.01616657
  36       0.06253018
  37       4.04384173
  38       3.77706555
  39      -1.24306135
  40       0.10165262
  41      -0.12164157
  42       0.06698765
  43      -0.00043529
  44       0.00066441
  45       0.15115187
  46      -0.00000000
  47       0.00000000
  48       0.27670789
  49       0.00000000
  50       0.00000000
  51      -2.29175574
  52      -0.00000000
  53      -0.00000000
  54      -0.68300388
  55       0.00000000
  56       0.00000000
  57      -0.36138247
  58      -0.23744075
  59      -0.23744075
  60       0.00000000
  61      -0.00000000
  62      -0.00000000
  63      -0.68092527
  64      -0.82832415
  65      -0.82832415
  66      -0.00000000
  67      -0.00000000
  68       0.00000000
Ene=     1.51948E-02
Spin= Alpha
Occup=   0.0000000000
   1       4.99830440
   2      -3.54780816
   3       1.77929148
   4      -0.64497023
   5      -0.00443305
   6      -0.00818637
   7      -0.00261440
   8       0.00231114
   9       0.00020278
  10      -0.00000802
  11     -29.99652200
  12       0.00000000
  13       0.00000000
  14       7.77640071
  15       0.00000000
  16       0.00000000
  17      -2.09255360
  18      -0.00000000
  19      -0.00000000
  20       0.99132092
  21       0.00000000
  22       0.00000000
  23      -4.87303899
  24       0.10192054
  25       0.10192054
  26       0.00000000
  27       0.00000000
  28       0.00000000
  29       2.50099131
  30       0.43619962
  31       0.43619962
  32       0.00000000
  33       0.00000000
  34      -0.00000000
  35       4.99830440
  36      -3.54780816
  37       1.77929148
  38      -0.64497023
  39      -0.00443306
  40      -0.00818637
  41      -0.00261440
  42       0.00231114
  43       0.00020278
  44      -0.00000802
  45      29.99652200
  46      -0.00000000
  47      -0.00000000
  48      -7.77640071
  49      -0.00000000
  50      -0.00000000
  51       2.09255360
  52       0.00000000
  53       0.00000000
  54      -0.99132092
  55      -0.00000000
  56      -0.00000000
  57      -4.87303899
  58       0.10192054
  59       0.10192054
  60       0.00000000
  61       0.00000000
  62      -0.00000000
  63       2.50099131
  64       0.43619961
  65       0.43619961
  66       0.00000000
  67       0.00000000
  68       0.00000000
Ene=     1.53296E-02
Spin= Alpha
Occup=   0.0000000000
   1       0.00000000
   2       0.00000000
   3      -0.00000000
   4      -0.00000000
   5       0.00000000
   6      -0.00000000
   7       0.00000000
   8      -0.00000000
   9      -0.00000000
  10      -0.00000000
  11      -0.00000000
  12       0.35042369
  13       0.07400787
  14      -0.00000000
  15       6.36937589
  16       1.34518282
  17       0.00000000
  18      -2.47712704
  19      -0.52315781
  20      -0.00000000
  21       1.35853189
  22       0.28691567
  23      -0.00000000
  24       0.00000000
  25       0.00000000
  26       0.07019667
  27       0.01482521
  28       0.00000000
  29      -0.00000000
  30      -0.00000000
  31      -0.00000000
  32       0.93257163
  33       0.19695483
  34      -0.00000000
  35       0.00000000
  36      -0.00000000
  37      -0.00000000
  38       0.00000000
  39      -0.00000000
  40       0.00000000
  41      -0.00000000
  42       0.00000000
  43      -0.00000000
  44       0.00000000
  45       0.00000000
  46      -0.35042369
  47      -0.07400787
  48       0.00000000
  49      -6.36937589
  50      -1.34518282
  51      -0.00000000
  52       2.47712704
  53       0.52315781
  54       0.00000000
  55      -1.35853189
  56      -0.28691567
  57      -0.00000000
  58      -0.00000000
  59      -0.00000000
  60       0.07019667
  61       0.01482521
  62      -0.00000000
  63      -0.00000000
  64      -0.00000000
  65      -0.00000000
  66       0.93257163
  67       0.19695483
  68       0.00000000
Ene=     1.53296E-02
Spin= Alpha
Occup=   0.0000000000
   1       0.00000000
   2      -0.00000000
   3       0.00000000
   4      -0.00000000
   5       0.00000000
   6      -0.00000000
   7       0.00000000
   8      -0.00000000
   9       0.00000000
  10      -0.00000000
  11       0.00000000
  12      -0.07400787
  13       0.35042369
  14      -0.00000000
  15      -1.34518282
  16       6.36937589
  17       0.00000000
  18       0.52315781
  19      -2.47712704
  20      -0.00000000
  21      -0.28691567
  22       1.35853189
  23       0.00000000
  24      -0.00000000
  25      -0.00000000
  26      -0.01482521
  27       0.07019667
  28       0.00000000
  29      -0.00000000
  30      -0.00000000
  31      -0.00000000
  32      -0.19695483
  33       0.93257163
  34      -0.00000000
  35      -0.00000000
  36       0.00000000
  37      -0.00000000
  38       0.00000000
  39      -0.00000000
  40       0.00000000
  41      -0.00000000
  42       0.00000000
  43      -0.00000000
  44       0.00000000
  45      -0.00000000
  46       0.07400787
  47      -0.35042369
  48      -0.00000000
  49       1.34518282
  50      -6.36937589
  51      -0.00000000
  52      -0.52315781
  53       2.47712704
  54      -0.00000000
  55       0.28691567
  56      -1.35853189
  57       0.00000000
  58       0.00000000
  59       0.00000000
  60      -0.01482521
  61       0.07019667
  62      -0.00000000
  63      -0.00000000
  64      -0.00000000
  65      -0.00000000
  66      -0.19695483
  67       0.93257163
  68       0.00000000
Ene=     2.21305E-02
Spin= Alpha
Occup=   0.0000000000
   1      -0.04685138
   2      -0.20457450
   3     -38.99078970
   4       6.96769954
   5      -1.01796486
   6       0.11944170
   7      -0.06883999
   8       0.03208050
   9      -0.00153429
  10       0.00050673
  11       0.44134168
  12       0.00000000
  13      -0.00000000
  14       0.75684308
  15      -0.00000000
  16      -0.00000000
  17     -13.11036832
  18       0.00000000
  19       0.00000000
  20       3.55030941
  21       0.00000000
  22      -0.00000000
  23       1.16414474
  24       0.67457134
  25       0.67457134
  26       0.00000000
  27      -0.00000000
  28       0.00000000
  29       1.81727999
  30       2.46249447
  31       2.46249447
  32      -0.00000000
  33      -0.00000000
  34      -0.00000000
  35       0.04685138
  36       0.20457450
  37      38.99078970
  38      -6.96769954
  39       1.01796486
  40      -0.11944170
  41       0.06883999
  42      -0.03208050
  43       0.00153429
  44      -0.00050673
  45       0.44134169
  46      -0.00000000
  47       0.00000000
  48       0.75684308
  49       0.00000000
  50       0.00000000
  51     -13.11036832
  52      -0.00000000
  53      -0.00000000
  54       3.55030941
  55       0.00000000
  56       0.00000000
  57      -1.16414474
  58      -0.67457134
  59      -0.67457134
  60       0.00000000
  61      -0.00000000
  62      -0.00000000
  63      -1.81727999
  64      -2.46249447
  65      -2.46249447
  66      -0.00000000
  67      -0.00000000
  68       0.00000000
Ene=     2.80394E-02
Spin= Alpha
Occup=   0.0000000000
   1      -4.28064533
   2      -0.63317642
   3       4.58691743
   4      -2.28181684
   5       0.65618098
   6       0.10729630
   7       0.03481673
   8      -0.03295326
   9      -0.00328667
  10       0.00016304
  11       5.89848459
  12      -0.00000000