[Molden Format]
[Atoms] AU
E+       1       4     0.00000000     0.00000000     0.00000000
E+       2       4     4.60000000     0.00000000     0.00000000
[GTO]
  1 0
s  1 1.00
   1.0000000000E-04   1.0000000000E+00
s  1 1.00
   3.0000000000E-04   1.0000000000E+00
s  1 1.00
   9.0000000000E-04   1.0000000000E+00
s  1 1.00
   2.7000000000E-03   1.0000000000E+00
s  1 1.00
   8.1000000000E-03   1.0000000000E+00
s  1 1.00
   2.4300000000E-02   1.0000000000E+00
s  1 1.00
   7.2900000000E-02   1.0000000000E+00
s  1 1.00
   2.1870000000E-01   1.0000000000E+00
s  1 1.00
   6.5610000000E-01   1.0000000000E+00
s  1 1.00
   1.9683000000E+00   1.0000000000E+00
p  1 1.00
   1.0000000000E-04   1.0000000000E+00
p  1 1.00
   3.0000000000E-04   1.0000000000E+00
p  1 1.00
   9.0000000000E-04   1.0000000000E+00
p  1 1.00
   2.7000000000E-03   1.0000000000E+00
d  1 1.00
   1.0000000000E-04   1.0000000000E+00
d  1 1.00
   3.0000000000E-04   1.0000000000E+00
 
  2 0
s  1 1.00
   1.0000000000E-04   1.0000000000E+00
s  1 1.00
   3.0000000000E-04   1.0000000000E+00
s  1 1.00
   9.0000000000E-04   1.0000000000E+00
s  1 1.00
   2.7000000000E-03   1.0000000000E+00
s  1 1.00
   8.1000000000E-03   1.0000000000E+00
s  1 1.00
   2.4300000000E-02   1.0000000000E+00
s  1 1.00
   7.2900000000E-02   1.0000000000E+00
s  1 1.00
   2.1870000000E-01   1.0000000000E+00
s  1 1.00
   6.5610000000E-01   1.0000000000E+00
s  1 1.00
   1.9683000000E+00   1.0000000000E+00
p  1 1.00
   1.0000000000E-04   1.0000000000E+00
p  1 1.00
   3.0000000000E-04   1.0000000000E+00
p  1 1.00
   9.0000000000E-04   1.0000000000E+00
p  1 1.00
   2.7000000000E-03   1.0000000000E+00
d  1 1.00
   1.0000000000E-04   1.0000000000E+00
d  1 1.00
   3.0000000000E-04   1.0000000000E+00
 
 
[MO]
Ene=    -2.13588E-02
Spin= Alpha
Occup=   1.0000000000
   1       0.00633915
   2       0.00791363
   3      -0.01269951
   4      -0.01020920
   5      -0.16213464
   6      -0.25966680
   7      -0.25594236
   8       0.18926554
   9       0.01380245
  10      -0.00026359
  11       0.00033397
  12       0.00000000
  13       0.00000000
  14       0.00082974
  15       0.00000000
  16       0.00000000
  17       0.02580320
  18      -0.00000000
  19       0.00000000
  20      -0.03007643
  21       0.00000000
  22       0.00000000
  23      -0.00115498
  24      -0.00079350
  25      -0.00079350
  26      -0.00000000
  27       0.00000000
  28      -0.00000000
  29      -0.00252239
  30      -0.00364890
  31      -0.00364890
  32      -0.00000000
  33      -0.00000000
  34       0.00000000
  35       0.00633915
  36       0.00791363
  37      -0.01269951
  38      -0.01020920
  39      -0.16213464
  40      -0.25966680
  41      -0.25594236
  42       0.18926554
  43       0.01380245
  44      -0.00026359
  45      -0.00033397
  46      -0.00000000
  47      -0.00000000
  48      -0.00082974
  49      -0.00000000
  50      -0.00000000
  51      -0.02580320
  52       0.00000000
  53      -0.00000000
  54       0.03007643
  55      -0.00000000
  56      -0.00000000
  57      -0.00115498
  58      -0.00079350
  59      -0.00079350
  60       0.00000000
  61      -0.00000000
  62       0.00000000
  63      -0.00252239
  64      -0.00364890
  65      -0.00364890
  66       0.00000000
  67       0.00000000
  68      -0.00000000
Ene=     2.12627E-03
Spin= Alpha
Occup=   0.0000000000
   1      -0.13056965
   2      -0.31506802
   3       1.09300936
   4      -0.50583698
   5       0.09521674
   6      -0.09442309
   7      -0.01033299
   8       0.01630038
   9       0.00321728
  10      -0.00030138
  11      -0.00669954
  12      -0.00000000
  13      -0.00000000
  14      -0.03121175
  15       0.00000000
  16      -0.00000000
  17      -0.11221219
  18      -0.00000000
  19      -0.00000000
  20       0.10959547
  21       0.00000000
  22      -0.00000000
  23       0.01889599
  24       0.01711133
  25       0.01711133
  26       0.00000000
  27       0.00000000
  28       0.00000000
  29       0.08468782
  30       0.09227768
  31       0.09227768
  32      -0.00000000
  33      -0.00000000
  34      -0.00000000
  35      -0.13056965
  36      -0.31506802
  37       1.09300936
  38      -0.50583698
  39       0.09521674
  40      -0.09442309
  41      -0.01033299
  42       0.01630038
  43       0.00321728
  44      -0.00030138
  45       0.00669954
  46       0.00000000
  47       0.00000000
  48       0.03121175
  49      -0.00000000
  50       0.00000000
  51       0.11221219
  52       0.00000000
  53       0.00000000
  54      -0.10959547
  55      -0.00000000
  56      -0.00000000
  57       0.01889599
  58       0.01711133
  59       0.01711133
  60      -0.00000000
  61      -0.00000000
  62      -0.00000000
  63       0.08468782
  64       0.09227768
  65       0.09227768
  66       0.00000000
  67       0.00000000
  68       0.00000000
Ene=     2.92667E-03
Spin= Alpha
Occup=   0.0000000000
   1      -0.00447827
   2      -0.00857665
   3      -0.55556800
   4      -8.26928436
   5       0.39597183
   6       0.01357393
   7       0.03893679
   8      -0.01890745
   9       0.00018688
  10      -0.00020080
  11       0.17561219
  12       0.00000000
  13      -0.00000000
  14       0.15118155
  15      -0.00000000
  16       0.00000000
  17      -0.80631054
  18      -0.00000000
  19      -0.00000000
  20      -0.90676111
  21       0.00000000
  22       0.00000000
  23       1.43494952
  24       1.41407043
  25       1.41407043
  26       0.00000000
  27      -0.00000000
  28       0.00000000
  29       2.74592682
  30       2.76824866
  31       2.76824866
  32      -0.00000000
  33       0.00000000
  34      -0.00000000
  35       0.00447827
  36       0.00857665
  37       0.55556800
  38       8.26928436
  39      -0.39597183
  40      -0.01357393
  41      -0.03893679
  42       0.01890745
  43      -0.00018688
  44       0.00020080
  45       0.17561219
  46      -0.00000000
  47       0.00000000
  48       0.15118155
  49       0.00000000
  50      -0.00000000
  51      -0.80631054
  52       0.00000000
  53       0.00000000
  54      -0.90676111
  55      -0.00000000
  56      -0.00000000
  57      -1.43494952
  58      -1.41407043
  59      -1.41407043
  60       0.00000000
  61      -0.00000000
  62      -0.00000000
  63      -2.74592682
  64      -2.76824866
  65      -2.76824866
  66      -0.00000000
  67       0.00000000
  68       0.00000000
Ene=     3.41499E-03
Spin= Alpha
Occup=   0.0000000000
   1      -0.00000000
   2       0.00000000
   3       0.00000000
   4       0.00000000
   5      -0.00000000
   6       0.00000000
   7      -0.00000000
   8       0.00000000
   9      -0.00000000
  10      -0.00000000
  11       0.00000000
  12      -0.02296775
  13       0.01270656
  14       0.00000000
  15       0.10304005
  16      -0.05700533
  17       0.00000000
  18      -0.50011270
  19       0.27667971
  20       0.00000000
  21      -0.00633594
  22       0.00350526
  23       0.00000000
  24       0.00000000
  25       0.00000000
  26      -0.32291724
  27       0.17864903
  28      -0.00000000
  29       0.00000000
  30       0.00000000
  31       0.00000000
  32       0.19618571
  33      -0.10853675
  34       0.00000000
  35       0.00000000
  36       0.00000000
  37      -0.00000000
  38      -0.00000000
  39       0.00000000
  40      -0.00000000
  41       0.00000000
  42      -0.00000000
  43       0.00000000
  44      -0.00000000
  45       0.00000000
  46      -0.02296775
  47       0.01270656
  48      -0.00000000
  49       0.10304005
  50      -0.05700533
  51       0.00000000
  52      -0.50011270
  53       0.27667971
  54       0.00000000
  55      -0.00633594
  56       0.00350526
  57      -0.00000000
  58      -0.00000000
  59      -0.00000000
  60       0.32291724
  61      -0.17864903
  62       0.00000000
  63      -0.00000000
  64      -0.00000000
  65      -0.00000000
  66      -0.19618571
  67       0.10853675
  68      -0.00000000
Ene=     3.41499E-03
Spin= Alpha
Occup=   0.0000000000
   1       0.00000000
   2      -0.00000000
   3      -0.00000000
   4      -0.00000000
   5       0.00000000
   6      -0.00000000
   7       0.00000000
   8      -0.00000000
   9       0.00000000
  10       0.00000000
  11       0.00000000
  12       0.01270656
  13       0.02296775
  14      -0.00000000
  15      -0.05700533
  16      -0.10304005
  17      -0.00000000
  18       0.27667971
  19       0.50011270
  20      -0.00000000
  21       0.00350526
  22       0.00633594
  23      -0.00000000
  24      -0.00000000
  25      -0.00000000
  26       0.17864903
  27       0.32291724
  28      -0.00000000
  29      -0.00000000
  30      -0.00000000
  31      -0.00000000
  32      -0.10853675
  33      -0.19618571
  34       0.00000000
  35      -0.00000000
  36       0.00000000
  37       0.00000000
  38       0.00000000
  39      -0.00000000
  40       0.00000000
  41      -0.00000000
  42       0.00000000
  43      -0.00000000
  44       0.00000000
  45      -0.00000000
  46       0.01270656
  47       0.02296775
  48       0.00000000
  49      -0.05700533
  50      -0.10304005
  51      -0.00000000
  52       0.27667971
  53       0.50011270
  54      -0.00000000
  55       0.00350526
  56       0.00633594
  57       0.00000000
  58       0.00000000
  59       0.00000000
  60      -0.17864903
  61      -0.32291724
  62       0.00000000
  63       0.00000000
  64       0.00000000
  65       0.00000000
  66       0.10853675
  67       0.19618571
  68      -0.00000000
Ene=     6.59856E-03
Spin= Alpha
Occup=   0.0000000000
   1       0.00000000
   2       0.00000000
   3       0.00000000
   4       0.00000000
   5      -0.00000000
   6       0.00000000
   7      -0.00000000
   8       0.00000000
   9      -0.00000000
  10       0.00000000
  11       0.00000000
  12      -0.00003973
  13       0.00053787
  14       0.00000000
  15       0.00010503
  16      -0.00142191
  17       0.00000000
  18      -0.49159112
  19       6.65521367
  20       0.00000000
  21      -0.08054832
  22       1.09047186
  23       0.00000000
  24       0.00000000
  25       0.00000000
  26       0.00266494
  27      -0.03607827
  28      -0.00000000
  29       0.00000000
  30       0.00000000
  31       0.00000000
  32      -0.00788473
  33       0.10674428
  34       0.00000000
  35       0.00000000
  36       0.00000000
  37      -0.00000000
  38      -0.00000000
  39       0.00000000
  40      -0.00000000
  41       0.00000000
  42      -0.00000000
  43       0.00000000
  44      -0.00000000
  45       0.00000000
  46       0.00003973
  47      -0.00053787
  48      -0.00000000
  49      -0.00010503
  50       0.00142191
  51      -0.00000000
  52       0.49159112
  53      -6.65521367
  54       0.00000000
  55       0.08054832
  56      -1.09047186
  57      -0.00000000
  58      -0.00000000
  59      -0.00000000
  60       0.00266494
  61      -0.03607827
  62       0.00000000
  63      -0.00000000
  64      -0.00000000
  65      -0.00000000
  66      -0.00788473
  67       0.10674428
  68      -0.00000000
Ene=     6.59856E-03
Spin= Alpha
Occup=   0.0000000000
   1       0.00000000
   2       0.00000000
   3       0.00000000
   4       0.00000000
   5      -0.00000000
   6       0.00000000
   7      -0.00000000
   8       0.00000000
   9      -0.00000000
  10       0.00000000
  11       0.00000000
  12       0.00053787
  13       0.00003973
  14       0.00000000
  15      -0.00142191
  16      -0.00010503
  17       0.00000000
  18       6.65521367
  19       0.49159112
  20       0.00000000
  21       1.09047186
  22       0.08054832
  23       0.00000000
  24       0.00000000
  25       0.00000000
  26      -0.03607827
  27      -0.00266494
  28      -0.00000000
  29       0.00000000
  30       0.00000000
  31       0.00000000
  32       0.10674428
  33       0.00788473
  34      -0.00000000
  35       0.00000000
  36       0.00000000
  37      -0.00000000
  38      -0.00000000
  39       0.00000000
  40      -0.00000000
  41       0.00000000
  42      -0.00000000
  43       0.00000000
  44      -0.00000000
  45      -0.00000000
  46      -0.00053787
  47      -0.00003973
  48      -0.00000000
  49       0.00142191
  50       0.00010503
  51      -0.00000000
  52      -6.65521367
  53      -0.49159112
  54       0.00000000
  55      -1.09047186
  56      -0.08054832
  57      -0.00000000
  58      -0.00000000
  59      -0.00000000
  60      -0.03607827
  61      -0.00266494
  62       0.00000000
  63      -0.00000000
  64      -0.00000000
  65      -0.00000000
  66       0.10674428
  67       0.00788473
  68       0.00000000
Ene=     6.63801E-03
Spin= Alpha
Occup=   0.0000000000
   1       0.27073960
   2       0.56486796
   3      -0.52722181
   4      -0.46124112
   5      -0.01209271
   6       0.00311042
   7       0.00151460
   8      -0.00106722
   9      -0.00000134
  10      -0.00001113
  11       0.01481105
  12       0.00000000
  13       0.00000000
  14       0.05420925
  15      -0.00000000
  16       0.00000000
  17       5.62579713
  18      -0.00000000
  19      -0.00000000
  20       1.01670762
  21      -0.00000000
  22      -0.00000000
  23      -0.07260608
  24      -0.02088797
  25      -0.02088797
  26      -0.00000000
  27       0.00000000
  28       0.00000000
  29      -0.06298406
  30      -0.22177165
  31      -0.22177165
  32      -0.00000000
  33      -0.00000000
  34       0.00000000
  35       0.27073960
  36       0.56486796
  37      -0.52722181
  38      -0.46124111
  39      -0.01209271
  40       0.00311042
  41       0.00151460
  42      -0.00106722
  43      -0.00000134
  44      -0.00001113
  45      -0.01481105
  46      -0.00000000
  47      -0.00000000
  48      -0.05420925
  49       0.00000000
  50      -0.00000000
  51      -5.62579713
  52       0.00000000
  53       0.00000000
  54      -1.01670762
  55       0.00000000
  56       0.00000000
  57      -0.07260608
  58      -0.02088797
  59      -0.02088797
  60       0.00000000
  61       0.00000000
  62      -0.00000000
  63      -0.06298406
  64      -0.22177165
  65      -0.22177165
  66      -0.00000000
  67      -0.00000000
  68      -0.00000000
Ene=     7.36787E-03
Spin= Alpha
Occup=   0.0000000000
   1       0.00388887
   2       0.00808199
   3      -0.08067960
   4       0.24409577
   5       0.08660669
   6       0.25014609
   7       0.06563825
   8      -0.04192756
   9      -0.00266892
  10      -0.00001208
  11      -0.15250390
  12       0.00000000
  13       0.00000000
  14      -0.14636774
  15      -0.00000000
  16       0.00000000
  17       0.77534108
  18      -0.00000000
  19      -0.00000000
  20      -0.68716727
  21       0.00000000
  22      -0.00000000
  23      -1.24498431
  24      -1.22429323
  25      -1.22429323
  26       0.00000000
  27       0.00000000
  28       0.00000000
  29      -2.44203885
  30      -2.46429913
  31      -2.46429913
  32      -0.00000000
  33       0.00000000
  34      -0.00000000
  35      -0.00388887
  36      -0.00808199
  37       0.08067960
  38      -0.24409577
  39      -0.08660669
  40      -0.25014609
  41      -0.06563825
  42       0.04192756
  43       0.00266892
  44       0.00001208
  45      -0.15250390
  46      -0.00000000
  47      -0.00000000
  48      -0.14636774
  49       0.00000000
  50      -0.00000000
  51       0.77534108
  52       0.00000000
  53       0.00000000
  54      -0.68716727
  55      -0.00000000
  56       0.00000000
  57       1.24498431
  58       1.22429323
  59       1.22429323
  60       0.00000000
  61       0.00000000
  62      -0.00000000
  63       2.44203885
  64       2.46429913
  65       2.46429913
  66      -0.00000000
  67      -0.00000000
  68       0.00000000
Ene=     8.67627E-03
Spin= Alpha
Occup=   0.0000000000
   1      -0.08260910
   2       0.15217505
   3      -0.89685462
   4       1.47906335
   5      -0.65985131
   6       0.04868140
   7      -0.12023899
   8       0.06583078
   9       0.00096734
  10       0.00047363
  11      -0.00419720
  12       0.00000000
  13       0.00000000
  14       0.01111689
  15      -0.00000000
  16       0.00000000
  17       0.85345901
  18      -0.00000000
  19      -0.00000000
  20      -0.48685693
  21       0.00000000
  22      -0.00000000
  23       0.00723445
  24       0.01725880
  25       0.01725880
  26      -0.00000000
  27      -0.00000000
  28       0.00000000
  29       0.02508062
  30      -0.00332946
  31      -0.00332946
  32       0.00000000
  33       0.00000000
  34      -0.00000000
  35      -0.08260910
  36       0.15217505
  37      -0.89685462
  38       1.47906334
  39      -0.65985131
  40       0.04868140
  41      -0.12023899
  42       0.06583078
  43       0.00096734
  44       0.00047363
  45       0.00419720
  46      -0.00000000
  47      -0.00000000
  48      -0.01111689
  49       0.00000000
  50      -0.00000000
  51      -0.85345901
  52       0.00000000
  53       0.00000000
  54       0.48685694
  55       0.00000000
  56       0.00000000
  57       0.00723445
  58       0.01725880
  59       0.01725880
  60       0.00000000
  61       0.00000000
  62      -0.00000000
  63       0.02508062
  64      -0.00332946
  65      -0.00332946
  66      -0.00000000
  67      -0.00000000
  68       0.00000000
Ene=     8.74593E-03
Spin= Alpha
Occup=   0.0000000000
   1       0.00000000
   2      -0.00000000
   3       0.00000000
   4       0.00000000
   5      -0.00000000
   6       0.00000000
   7      -0.00000000
   8       0.00000000
   9      -0.00000000
  10       0.00000000
  11       0.00000000
  12       0.00396625
  13       0.02371091
  14       0.00000000
  15      -0.01812426
  16      -0.10834990
  17       0.00000000
  18       0.10216509
  19       0.61076025
  20       0.00000000
  21      -0.12205943
  22      -0.72969198
  23       0.00000000
  24       0.00000000
  25       0.00000000
  26       0.05279468
  27       0.31561558
  28      -0.00000000
  29       0.00000000
  30       0.00000000
  31       0.00000000
  32      -0.03147721
  33      -0.18817612
  34       0.00000000
  35      -0.00000000
  36       0.00000000
  37      -0.00000000
  38      -0.00000000
  39       0.00000000
  40      -0.00000000
  41       0.00000000
  42       0.00000000
  43       0.00000000
  44      -0.00000000
  45       0.00000000
  46       0.00396625
  47       0.02371091
  48       0.00000000
  49      -0.01812426
  50      -0.10834990
  51       0.00000000
  52       0.10216509
  53       0.61076025
  54       0.00000000
  55      -0.12205943
  56      -0.72969198
  57      -0.00000000
  58      -0.00000000
  59      -0.00000000
  60      -0.05279468
  61      -0.31561558
  62       0.00000000
  63      -0.00000000
  64      -0.00000000
  65      -0.00000000
  66       0.03147721
  67       0.18817612
  68      -0.00000000
Ene=     8.74593E-03
Spin= Alpha
Occup=   0.0000000000
   1      -0.00000000
   2       0.00000000
   3      -0.00000000
   4      -0.00000000
   5       0.00000000
   6      -0.00000000
   7       0.00000000
   8      -0.00000000
   9      -0.00000000
  10      -0.00000000
  11      -0.00000000
  12      -0.02371091
  13       0.00396625
  14       0.00000000
  15       0.10834990
  16      -0.01812426
  17      -0.00000000
  18      -0.61076025
  19       0.10216509
  20      -0.00000000
  21       0.72969198
  22      -0.12205943
  23      -0.00000000
  24      -0.00000000
  25       0.00000000
  26      -0.31561558
  27       0.05279468
  28       0.00000000
  29       0.00000000
  30      -0.00000000
  31      -0.00000000
  32       0.18817612
  33      -0.03147721
  34      -0.00000000
  35       0.00000000
  36      -0.00000000
  37       0.00000000
  38       0.00000000
  39       0.00000000
  40      -0.00000000
  41       0.00000000
  42      -0.00000000
  43      -0.00000000
  44      -0.00000000
  45       0.00000000
  46      -0.02371091
  47       0.00396625
  48      -0.00000000
  49       0.10834990
  50      -0.01812426
  51      -0.00000000
  52      -0.61076025
  53       0.10216509
  54      -0.00000000
  55       0.72969198
  56      -0.12205943
  57       0.00000000
  58       0.00000000
  59      -0.00000000
  60       0.31561558
  61      -0.05279468
  62      -0.00000000
  63      -0.00000000
  64       0.00000000
  65       0.00000000
  66      -0.18817612
  67       0.03147721
  68       0.00000000
Ene=     1.32635E-02
Spin= Alpha
Occup=   0.0000000000
   1      -0.00461312
   2      -0.00774741
   3      39.48966421
   4     498.23587322
   5      -1.05801192
   6       0.23809640
   7      -0.00822260
   8      -0.00635464
   9      -0.00294470
  10       0.00035329
  11       0.17742350
  12      -0.00000000
  13       0.00000002
  14       0.16843182
  15       0.00000000
  16      -0.00000000
  17       1.85492262
  18       0.00000000
  19       0.00000000
  20      60.79457108
  21      -0.00000000
  22      -0.00000000
  23       1.68463723
  24       1.29735123
  25       1.29735123
  26      -0.00000000
  27       0.00000000
  28      -0.00000000
  29       2.68269684
  30       3.11973482
  31       3.11973482
  32       0.00000000
  33      -0.00000000
  34       0.00000000
  35       0.00461312
  36       0.00774741
  37     -39.48966421
  38    -498.23587322
  39       1.05801192
  40      -0.23809640
  41       0.00822260
  42       0.00635464
  43       0.00294470
  44      -0.00035329
  45       0.17742353
  46       0.00000000
  47      -0.00000002
  48       0.16843184
  49      -0.00000000
  50       0.00000000
  51       1.85492262
  52      -0.00000000
  53      -0.00000000
  54      60.79457108
  55       0.00000000
  56       0.00000000
  57      -1.68463724
  58      -1.29735123
  59      -1.29735123
  60      -0.00000000
  61       0.00000000
  62       0.00000000
  63      -2.68269684
  64      -3.11973482
  65      -3.11973482
  66       0.00000000
  67      -0.00000000
  68      -0.00000000
Ene=     1.44715E-02
Spin= Alpha
Occup=   0.0000000000
   1       0.00000000
   2       0.00000000
   3      -0.00000000
   4      -0.00000000
   5       0.00000000
   6      -0.00000000
   7      -0.00000000
   8       0.00000000
   9       0.00000000
  10      -0.00000000
  11      -0.00000000
  12       0.00001938
  13       0.00040068
  14      -0.00000000
  15      -0.00001588
  16      -0.00032836
  17      -0.00000000
  18       0.39442968
  19       8.15629260
  20      -0.00000000
  21      -0.25840797
  22      -5.34354068
  23      -0.00000000
  24      -0.00000000
  25      -0.00000000
  26      -0.00171611
  27      -0.03548702
  28       0.00000000
  29      -0.00000000
  30      -0.00000000
  31      -0.00000000
  32       0.00518918
  33       0.10730548
  34       0.00000000
  35       0.00000000
  36       0.00000000
  37       0.00000000
  38       0.00000000
  39      -0.00000000
  40       0.00000000
  41       0.00000000
  42      -0.00000000
  43      -0.00000000
  44       0.00000000
  45      -0.00000000
  46      -0.00001938
  47      -0.00040068
  48      -0.00000000
  49       0.00001588
  50       0.00032836
  51      -0.00000000
  52      -0.39442968
  53      -8.15629260
  54      -0.00000000
  55       0.25840797
  56       5.34354068
  57       0.00000000
  58       0.00000000
  59       0.00000000
  60      -0.00171611
  61      -0.03548702
  62      -0.00000000
  63       0.00000000
  64       0.00000000
  65       0.00000000
  66       0.00518918
  67       0.10730548
  68      -0.00000000
Ene=     1.44715E-02
Spin= Alpha
Occup=   0.0000000000
   1       0.00000000
   2       0.00000000
   3      -0.00000000
   4      -0.00000001
   5       0.00000000
   6      -0.00000000
   7      -0.00000000
   8       0.00000000
   9       0.00000000
  10      -0.00000000
  11      -0.00000000
  12       0.00040068
  13      -0.00001938
  14      -0.00000000
  15      -0.00032836
  16       0.00001588
  17      -0.00000000
  18       8.15629260
  19      -0.39442968
  20      -0.00000000
  21      -5.34354068
  22       0.25840797
  23      -0.00000000
  24      -0.00000000
  25      -0.00000000
  26      -0.03548702
  27       0.00171611
  28      -0.00000000
  29      -0.00000000
  30      -0.00000000
  31      -0.00000000
  32       0.10730548
  33      -0.00518918
  34      -0.00000000
  35       0.00000000
  36       0.00000000
  37       0.00000000
  38       0.00000001
  39      -0.00000000
  40       0.00000000
  41       0.00000000
  42      -0.00000000
  43      -0.00000000
  44       0.00000000
  45      -0.00000000
  46      -0.00040068
  47       0.00001938
  48      -0.00000000
  49       0.00032836
  50      -0.00001588
  51      -0.00000000
  52      -8.15629260
  53       0.39442968
  54      -0.00000000
  55       5.34354068
  56      -0.25840797
  57       0.00000000
  58       0.00000000
  59       0.00000000
  60      -0.03548702
  61       0.00171611
  62       0.00000000
  63       0.00000000
  64       0.00000000
  65       0.00000000
  66       0.10730548
  67      -0.00518918
  68       0.00000000
Ene=     1.48729E-02
Spin= Alpha
Occup=   0.0000000000
   1      -0.50631324
   2      -0.90153330
   3       1.31248804
   4      -0.04322740
   5      -0.60405550
   6       0.11166122
   7      -0.06228170
   8       0.02579450
   9      -0.00158496
  10       0.00045589
  11      -0.02666261
  12      -0.00000000
  13      -0.00000000
  14      -0.09173575
  15       0.00000000
  16      -0.00000000
  17      -6.75564457
  18       0.00000000
  19       0.00000000
  20       4.38432926
  21      -0.00000000
  22      -0.00000000
  23       0.10426798
  24       0.05684568
  25       0.05684568
  26       0.00000000
  27       0.00000000
  28       0.00000000
  29       0.19119634
  30       0.34564936
  31       0.34564936
  32      -0.00000000
  33      -0.00000000
  34      -0.00000000
  35      -0.50631324
  36      -0.90153330
  37       1.31248804
  38      -0.04322738
  39      -0.60405550
  40       0.11166122
  41      -0.06228170
  42       0.02579450
  43      -0.00158496
  44       0.00045589
  45       0.02666261
  46       0.00000000
  47       0.00000000
  48       0.09173575
  49      -0.00000000
  50       0.00000000
  51       6.75564457
  52      -0.00000000
  53      -0.00000000
  54      -4.38432926
  55       0.00000000
  56       0.00000000
  57       0.10426798
  58       0.05684568
  59       0.05684568
  60      -0.00000000
  61      -0.00000000
  62      -0.00000000
  63       0.19119634
  64       0.34564936
  65       0.34564936
  66       0.00000000
  67       0.00000000
  68       0.00000000
Ene=     1.92444E-02
Spin= Alpha
Occup=   0.0000000000
   1       0.00421476
   2       0.00225457
   3     -13.21055485
   4    -166.82154477
   5       3.71347103
   6       0.05463681
   7       0.19638662
   8      -0.09414546
   9       0.00039649
  10      -0.00093148
  11      -0.16204793
  12       0.00000000
  13      -0.00000001
  14      -0.02421389
  15      -0.00000000
  16       0.00000000
  17      -0.98078151
  18       0.00000000
  19       0.00000000
  20     -19.46575572
  21      -0.00000000
  22      -0.00000000
  23      -1.57455141
  24      -1.32588388
  25      -1.32588389
  26       0.00000000
  27      -0.00000000
  28       0.00000000
  29      -1.92432369
  30      -2.19805299
  31      -2.19805299
  32      -0.00000000
  33       0.00000000
  34      -0.00000000
  35      -0.00421476
  36      -0.00225457
  37      13.21055485
  38     166.82154477
  39      -3.71347103
  40      -0.05463681
  41      -0.19638662
  42       0.09414546
  43      -0.00039649
  44       0.00093148
  45      -0.16204795
  46      -0.00000000
  47       0.00000001
  48      -0.02421390
  49       0.00000000
  50      -0.00000000
  51      -0.98078151
  52      -0.00000000
  53      -0.00000000
  54     -19.46575572
  55       0.00000000
  56       0.00000000
  57       1.57455141
  58       1.32588389
  59       1.32588389
  60       0.00000000
  61      -0.00000000
  62      -0.00000000
  63       1.92432369
  64       2.19805299
  65       2.19805299
  66      -0.00000000
  67       0.00000000
  68       0.00000000
Ene=     2.50832E-02
Spin= Alpha
Occup=   0.0000000000
   1       2.94673660
   2       2.99500227
   3      -3.85369868
   4       1.48775662
   5      -0.10037072
   6      -0.17095775
   7      -0.02221059
   8       0.02885775
   9       0.00516469
  10      -0.00044143
  11       0.15219982
  12       0.00000000
  13       0.00000000
  14       0.33825951
  15      -0.00000000
  16       0.00000000
  17       1.12444575
  18      -0.00000000
  19       0.00000000
  20      -0.74329340
  21       0.00000000
  22      -0.00000000
  23      -0.43097055
  24      -0.44813634
  25      -0.44813634
  26      -0.00000000
  27      -0.00000000
  28      -0.00000000
  29      -1.39877316
  30      -1.40299199
  31      -1.40299199
  32       0.00000000
  33       0.00000000
  34       0.00000000
  35       2.94673660
  36       2.99500227
  37      -3.85369868
  38       1.48775662
  39      -0.10037072
  40      -0.17095775
  41      -0.02221059
  42       0.02885775
  43       0.00516469
  44      -0.00044143
  45      -0.15219982
  46      -0.00000000
  47      -0.00000000
  48      -0.33825951
  49       0.00000000
  50      -0.00000000
  51      -1.12444575
  52       0.00000000
  53      -0.00000000
  54       0.74329340
  55      -0.00000000
  56       0.00000000
  57      -0.43097055
  58      -0.44813634
  59      -0.44813634
  60       0.00000000
  61       0.00000000
  62       0.00000000
  63      -1.39877316
  64      -1.40299199
  65      -1.40299199
  66      -0.00000000
  67      -0.00000000
  68      -0.00000000
Ene=     3.42924E-02
Spin= Alpha
Occup=   0.0000000000
   1       0.04630028
   2       0.04068586
   3      -5.60715967
   4     -64.25282723
   5      -0.48026814
   6      -0.34258900
   7      -0.01594124
   8       0.02182281
   9       0.00420813
  10      -0.00037848
  11      -1.78336873
  12       0.00000000