 Molden2AIM, Version 3.1.0 (02/25/2015)           Time: Thu Oct 17 19:55:02 2024
GAUSSIAN             68 MOL ORBITALS     68 PRIMITIVES        2 NUCLEI
  Be   1    (CENTRE  1)   0.00000000  0.00000000  0.00000000  CHARGE =  4.0
  Be   2    (CENTRE  2)  40.80000000  0.00000000  0.00000000  CHARGE =  4.0
CENTRE ASSIGNMENTS    1  1  1  1  1  1  1  1  1  1  1  1  1  1  1  1  1  1  1  1
CENTRE ASSIGNMENTS    1  1  1  1  1  1  1  1  1  1  1  1  1  1  2  2  2  2  2  2
CENTRE ASSIGNMENTS    2  2  2  2  2  2  2  2  2  2  2  2  2  2  2  2  2  2  2  2
CENTRE ASSIGNMENTS    2  2  2  2  2  2  2  2
TYPE ASSIGNMENTS      1  1  1  1  1  1  1  1  1  1  2  3  4  2  3  4  2  3  4  2
TYPE ASSIGNMENTS      3  4  5  6  7  8  9 10  5  6  7  8  9 10  1  1  1  1  1  1
TYPE ASSIGNMENTS      1  1  1  1  2  3  4  2  3  4  2  3  4  2  3  4  5  6  7  8
TYPE ASSIGNMENTS      9 10  5  6  7  8  9 10
EXPONENTS  0.1000000D-03 0.3000000D-03 0.9000000D-03 0.2700000D-02 0.8100000D-02
EXPONENTS  0.2430000D-01 0.7290000D-01 0.2187000D+00 0.6561000D+00 0.1968300D+01
EXPONENTS  0.1000000D-03 0.1000000D-03 0.1000000D-03 0.3000000D-03 0.3000000D-03
EXPONENTS  0.3000000D-03 0.9000000D-03 0.9000000D-03 0.9000000D-03 0.2700000D-02
EXPONENTS  0.2700000D-02 0.2700000D-02 0.1000000D-03 0.1000000D-03 0.1000000D-03
EXPONENTS  0.1000000D-03 0.1000000D-03 0.1000000D-03 0.3000000D-03 0.3000000D-03
EXPONENTS  0.3000000D-03 0.3000000D-03 0.3000000D-03 0.3000000D-03 0.1000000D-03
EXPONENTS  0.3000000D-03 0.9000000D-03 0.2700000D-02 0.8100000D-02 0.2430000D-01
EXPONENTS  0.7290000D-01 0.2187000D+00 0.6561000D+00 0.1968300D+01 0.1000000D-03
EXPONENTS  0.1000000D-03 0.1000000D-03 0.3000000D-03 0.3000000D-03 0.3000000D-03
EXPONENTS  0.9000000D-03 0.9000000D-03 0.9000000D-03 0.2700000D-02 0.2700000D-02
EXPONENTS  0.2700000D-02 0.1000000D-03 0.1000000D-03 0.1000000D-03 0.1000000D-03
EXPONENTS  0.1000000D-03 0.1000000D-03 0.3000000D-03 0.3000000D-03 0.3000000D-03
EXPONENTS  0.3000000D-03 0.3000000D-03 0.3000000D-03
MO    1     MO 0.0        OCC NO =    1.0000000  ORB. ENERGY =   -0.003488
 -0.11793529D-04  0.37820275D-05  0.90199659D-04  0.16378881D-02  0.58139999D-02
  0.86904741D-02  0.12249201D-01 -0.22568569D-01 -0.35239208D-02  0.11378011D-03
  0.69191742D-06  0.00000000D+00 -0.00000000D+00 -0.66134311D-06 -0.00000000D+00
  0.00000000D+00  0.38570113D-05  0.00000000D+00 -0.00000000D+00  0.50064240D-04
 -0.00000000D+00  0.00000000D+00  0.27664127D-08 -0.78505579D-10 -0.78505579D-10
 -0.00000000D+00 -0.00000000D+00 -0.00000000D+00 -0.49742667D-08 -0.13994297D-08
 -0.13994297D-08  0.00000000D+00  0.00000000D+00  0.00000000D+00 -0.11793529D-04
  0.37820275D-05  0.90199659D-04  0.16378881D-02  0.58139999D-02  0.86904741D-02
  0.12249201D-01 -0.22568569D-01 -0.35239208D-02  0.11378011D-03 -0.69191742D-06
 -0.00000000D+00  0.00000000D+00  0.66134311D-06  0.00000000D+00 -0.00000000D+00
 -0.38570113D-05 -0.00000000D+00  0.00000000D+00 -0.50064240D-04  0.00000000D+00
 -0.00000000D+00  0.27664127D-08 -0.78505579D-10 -0.78505579D-10  0.00000000D+00
 -0.00000000D+00  0.00000000D+00 -0.49742667D-08 -0.13994297D-08 -0.13994297D-08
  0.00000000D+00  0.00000000D+00 -0.00000000D+00
MO    2     MO 0.0        OCC NO =    0.0000000  ORB. ENERGY =   -0.003234
  0.84025124D-06 -0.75114986D-04 -0.23287812D-04 -0.21600117D-02 -0.55078652D-02
 -0.95012387D-02 -0.12368844D-01  0.23188341D-01  0.37858582D-02 -0.17055765D-03
 -0.35108584D-07  0.00000000D+00  0.00000000D+00 -0.11956186D-05  0.00000000D+00
 -0.00000000D+00  0.15603721D-05 -0.00000000D+00  0.00000000D+00 -0.77718296D-04
  0.00000000D+00 -0.00000000D+00 -0.44163235D-09 -0.36638406D-09 -0.36638406D-09
  0.00000000D+00  0.00000000D+00  0.00000000D+00 -0.10520299D-07 -0.60166663D-08
 -0.60166663D-08 -0.00000000D+00 -0.00000000D+00 -0.00000000D+00 -0.84025124D-06
  0.75114986D-04  0.23287812D-04  0.21600117D-02  0.55078652D-02  0.95012387D-02
  0.12368844D-01 -0.23188341D-01 -0.37858582D-02  0.17055765D-03 -0.35108584D-07
 -0.00000000D+00 -0.00000000D+00 -0.11956186D-05 -0.00000000D+00  0.00000000D+00
  0.15603721D-05  0.00000000D+00 -0.00000000D+00 -0.77718296D-04 -0.00000000D+00
  0.00000000D+00  0.44163235D-09  0.36638406D-09  0.36638406D-09  0.00000000D+00
  0.00000000D+00 -0.00000000D+00  0.10520299D-07  0.60166663D-08  0.60166663D-08
 -0.00000000D+00 -0.00000000D+00  0.00000000D+00
MO    3     MO 0.0        OCC NO =    0.0000000  ORB. ENERGY =    0.004346
  0.45441229D-03  0.17189778D-03 -0.36163439D-02  0.49566152D-02  0.14396959D-02
  0.51630046D-02  0.39837720D-02 -0.85451857D-02 -0.18355045D-02  0.20127959D-03
 -0.15767895D-04  0.00000000D+00  0.00000000D+00  0.19711084D-04 -0.00000000D+00
  0.00000000D+00 -0.10200197D-03  0.00000000D+00 -0.00000000D+00  0.33182196D-04
 -0.00000000D+00  0.00000000D+00 -0.69505278D-07 -0.44634463D-08 -0.44634463D-08
 -0.00000000D+00  0.00000000D+00  0.00000000D+00  0.37190335D-07 -0.10274653D-06
 -0.10274653D-06 -0.00000000D+00  0.00000000D+00 -0.00000000D+00  0.45441229D-03
  0.17189778D-03 -0.36163439D-02  0.49566152D-02  0.14396959D-02  0.51630046D-02
  0.39837720D-02 -0.85451857D-02 -0.18355045D-02  0.20127959D-03  0.15767895D-04
 -0.00000000D+00 -0.00000000D+00 -0.19711084D-04  0.00000000D+00 -0.00000000D+00
  0.10200197D-03 -0.00000000D+00  0.00000000D+00 -0.33182196D-04  0.00000000D+00
  0.00000000D+00 -0.69505278D-07 -0.44634463D-08 -0.44634463D-08  0.00000000D+00
  0.00000000D+00 -0.00000000D+00  0.37190335D-07 -0.10274653D-06 -0.10274653D-06
 -0.00000000D+00 -0.00000000D+00  0.00000000D+00
MO    4     MO 0.0        OCC NO =    0.0000000  ORB. ENERGY =    0.007370
  0.00000000D+00 -0.00000000D+00  0.00000000D+00 -0.00000000D+00 -0.00000000D+00
  0.00000000D+00 -0.00000000D+00  0.00000000D+00 -0.00000000D+00  0.00000000D+00
  0.00000000D+00 -0.29114574D-06  0.31602358D-06 -0.00000000D+00  0.33622353D-05
 -0.36495320D-05  0.00000000D+00 -0.44596064D-04  0.48406711D-04 -0.00000000D+00
 -0.25049129D-03  0.27189529D-03 -0.00000000D+00 -0.00000000D+00 -0.00000000D+00
  0.35324791D-08 -0.38343241D-08 -0.00000000D+00 -0.00000000D+00 -0.00000000D+00
 -0.00000000D+00 -0.58959605D-07  0.63997588D-07  0.00000000D+00 -0.00000000D+00
  0.00000000D+00 -0.00000000D+00  0.00000000D+00 -0.00000000D+00  0.00000000D+00
 -0.00000000D+00 -0.00000000D+00  0.00000000D+00 -0.00000000D+00 -0.00000000D+00
 -0.29114574D-06  0.31602358D-06 -0.00000000D+00  0.33622353D-05 -0.36495320D-05
  0.00000000D+00 -0.44596064D-04  0.48406711D-04 -0.00000000D+00 -0.25049129D-03
  0.27189529D-03  0.00000000D+00  0.00000000D+00  0.00000000D+00 -0.35324791D-08
  0.38343241D-08  0.00000000D+00  0.00000000D+00  0.00000000D+00  0.00000000D+00
  0.58959605D-07 -0.63997588D-07 -0.00000000D+00
MO    5     MO 0.0        OCC NO =    0.0000000  ORB. ENERGY =    0.007370
 -0.00000000D+00  0.00000000D+00 -0.00000000D+00  0.00000000D+00 -0.00000000D+00
  0.00000000D+00  0.00000000D+00 -0.00000000D+00 -0.00000000D+00  0.00000000D+00
 -0.00000000D+00 -0.31602358D-06 -0.29114574D-06  0.00000000D+00  0.36495320D-05
  0.33622353D-05 -0.00000000D+00 -0.48406711D-04 -0.44596064D-04  0.00000000D+00
 -0.27189529D-03 -0.25049129D-03  0.00000000D+00  0.00000000D+00  0.00000000D+00
  0.38343241D-08  0.35324791D-08  0.00000000D+00  0.00000000D+00  0.00000000D+00
  0.00000000D+00 -0.63997588D-07 -0.58959605D-07 -0.00000000D+00  0.00000000D+00
 -0.00000000D+00  0.00000000D+00 -0.00000000D+00  0.00000000D+00 -0.00000000D+00
  0.00000000D+00  0.00000000D+00  0.00000000D+00  0.00000000D+00  0.00000000D+00
 -0.31602358D-06 -0.29114574D-06  0.00000000D+00  0.36495320D-05  0.33622353D-05
 -0.00000000D+00 -0.48406711D-04 -0.44596064D-04  0.00000000D+00 -0.27189529D-03
 -0.25049129D-03 -0.00000000D+00 -0.00000000D+00 -0.00000000D+00 -0.38343241D-08
 -0.35324791D-08 -0.00000000D+00 -0.00000000D+00 -0.00000000D+00 -0.00000000D+00
  0.63997588D-07  0.58959605D-07  0.00000000D+00
MO    6     MO 0.0        OCC NO =    0.0000000  ORB. ENERGY =    0.009649
  0.00000000D+00 -0.00000000D+00  0.00000000D+00  0.00000000D+00 -0.00000000D+00
  0.00000000D+00 -0.00000000D+00  0.00000000D+00 -0.00000000D+00  0.00000000D+00
 -0.00000000D+00 -0.66535090D-06  0.24150139D-06 -0.00000000D+00  0.44952650D-05
 -0.16316394D-05  0.00000000D+00  0.24370316D-05 -0.88456540D-06  0.00000000D+00
  0.61121047D-03 -0.22185010D-03 -0.00000000D+00 -0.00000000D+00 -0.00000000D+00
 -0.35315183D-08  0.12818293D-08  0.00000000D+00 -0.00000000D+00 -0.00000000D+00
 -0.00000000D+00  0.67867036D-07 -0.24633595D-07  0.00000000D+00  0.00000000D+00
  0.00000000D+00 -0.00000000D+00  0.00000000D+00 -0.00000000D+00  0.00000000D+00
 -0.00000000D+00  0.00000000D+00 -0.00000000D+00 -0.00000000D+00  0.00000000D+00
  0.66535090D-06 -0.24150139D-06 -0.00000000D+00 -0.44952650D-05  0.16316394D-05
  0.00000000D+00 -0.24370316D-05  0.88456540D-06 -0.00000000D+00 -0.61121047D-03
  0.22185010D-03 -0.00000000D+00  0.00000000D+00  0.00000000D+00 -0.35315183D-08
  0.12818293D-08 -0.00000000D+00  0.00000000D+00  0.00000000D+00  0.00000000D+00
  0.67867036D-07 -0.24633595D-07 -0.00000000D+00
MO    7     MO 0.0        OCC NO =    0.0000000  ORB. ENERGY =    0.009649
 -0.00000000D+00 -0.00000000D+00  0.00000000D+00 -0.00000000D+00 -0.00000000D+00
 -0.00000000D+00 -0.00000000D+00  0.00000000D+00  0.00000000D+00 -0.00000000D+00
  0.00000000D+00 -0.24150139D-06 -0.66535090D-06 -0.00000000D+00  0.16316394D-05
  0.44952650D-05  0.00000000D+00  0.88456540D-06  0.24370316D-05  0.00000000D+00
  0.22185010D-03  0.61121047D-03  0.00000000D+00 -0.00000000D+00 -0.00000000D+00
 -0.12818293D-08 -0.35315183D-08 -0.00000000D+00 -0.00000000D+00 -0.00000000D+00
 -0.00000000D+00  0.24633595D-07  0.67867036D-07  0.00000000D+00 -0.00000000D+00
  0.00000000D+00 -0.00000000D+00 -0.00000000D+00  0.00000000D+00  0.00000000D+00
  0.00000000D+00 -0.00000000D+00 -0.00000000D+00  0.00000000D+00 -0.00000000D+00
  0.24150139D-06  0.66535090D-06 -0.00000000D+00 -0.16316394D-05 -0.44952650D-05
  0.00000000D+00 -0.88456540D-06 -0.24370316D-05  0.00000000D+00 -0.22185010D-03
 -0.61121047D-03  0.00000000D+00  0.00000000D+00  0.00000000D+00 -0.12818293D-08
 -0.35315183D-08  0.00000000D+00  0.00000000D+00  0.00000000D+00  0.00000000D+00
  0.24633595D-07  0.67867036D-07 -0.00000000D+00
MO    8     MO 0.0        OCC NO =    0.0000000  ORB. ENERGY =    0.009890
  0.20376172D-03 -0.40429984D-01  0.79427614D-02  0.14733650D-02 -0.10604824D-01
 -0.16004299D-02 -0.80515104D-02  0.12452109D-01  0.10563325D-02  0.23811274D-03
  0.15900580D-05  0.00000000D+00  0.00000000D+00 -0.53842142D-03 -0.00000000D+00
 -0.00000000D+00  0.19419205D-03  0.00000000D+00  0.00000000D+00  0.33795200D-03
 -0.00000000D+00 -0.00000000D+00  0.13078149D-07  0.83332346D-08  0.83332346D-08
  0.00000000D+00  0.00000000D+00  0.00000000D+00 -0.21540912D-05  0.87289852D-07
  0.87289852D-07 -0.00000000D+00 -0.00000000D+00 -0.00000000D+00 -0.20376172D-03
  0.40429984D-01 -0.79427614D-02 -0.14733650D-02  0.10604824D-01  0.16004299D-02
  0.80515104D-02 -0.12452109D-01 -0.10563325D-02 -0.23811274D-03  0.15900580D-05
 -0.00000000D+00 -0.00000000D+00 -0.53842142D-03  0.00000000D+00  0.00000000D+00
  0.19419205D-03 -0.00000000D+00 -0.00000000D+00  0.33795200D-03  0.00000000D+00
  0.00000000D+00 -0.13078149D-07 -0.83332346D-08 -0.83332346D-08  0.00000000D+00
  0.00000000D+00 -0.00000000D+00  0.21540912D-05 -0.87289852D-07 -0.87289852D-07
 -0.00000000D+00 -0.00000000D+00  0.00000000D+00
MO    9     MO 0.0        OCC NO =    0.0000000  ORB. ENERGY =    0.010226
  0.26896459D-03 -0.44239144D-03 -0.20990042D-02  0.10839726D-01 -0.12811219D-01
  0.23299084D-02 -0.75478577D-02  0.96612827D-02 -0.11314508D-03  0.48744124D-03
 -0.19637257D-04 -0.00000000D+00  0.00000000D+00  0.21065915D-04  0.00000000D+00
 -0.00000000D+00 -0.13599897D-03 -0.00000000D+00  0.00000000D+00  0.66413687D-03
  0.00000000D+00  0.00000000D+00 -0.76997759D-07  0.44579391D-08  0.44579391D-08
 -0.00000000D+00  0.00000000D+00 -0.00000000D+00  0.24401266D-06  0.10470791D-06
  0.10470791D-06  0.00000000D+00  0.00000000D+00  0.00000000D+00  0.26896459D-03
 -0.44239144D-03 -0.20990042D-02  0.10839726D-01 -0.12811219D-01  0.23299084D-02
 -0.75478577D-02  0.96612827D-02 -0.11314508D-03  0.48744124D-03  0.19637257D-04
  0.00000000D+00 -0.00000000D+00 -0.21065915D-04 -0.00000000D+00  0.00000000D+00
  0.13599897D-03  0.00000000D+00 -0.00000000D+00 -0.66413687D-03 -0.00000000D+00
 -0.00000000D+00 -0.76997759D-07  0.44579391D-08  0.44579391D-08 -0.00000000D+00
  0.00000000D+00  0.00000000D+00  0.24401266D-06  0.10470791D-06  0.10470791D-06
  0.00000000D+00 -0.00000000D+00 -0.00000000D+00
MO   10     MO 0.0        OCC NO =    0.0000000  ORB. ENERGY =    0.014548
 -0.00000000D+00  0.00000000D+00 -0.00000000D+00  0.00000000D+00 -0.00000000D+00
  0.00000000D+00 -0.00000000D+00  0.00000000D+00 -0.00000000D+00  0.00000000D+00
  0.00000000D+00  0.10137158D-05  0.31748021D-06  0.00000000D+00 -0.12654403D-04
 -0.39631652D-05 -0.00000000D+00  0.20867203D-03  0.65352884D-04  0.00000000D+00
 -0.78932575D-03 -0.24720474D-03  0.00000000D+00  0.00000000D+00  0.00000000D+00
 -0.81770808D-08 -0.25609361D-08 -0.00000000D+00  0.00000000D+00  0.00000000D+00
  0.00000000D+00  0.17170292D-06  0.53774724D-07 -0.00000000D+00  0.00000000D+00
 -0.00000000D+00  0.00000000D+00 -0.00000000D+00  0.00000000D+00 -0.00000000D+00
  0.00000000D+00 -0.00000000D+00  0.00000000D+00 -0.00000000D+00 -0.00000000D+00
  0.10137158D-05  0.31748021D-06  0.00000000D+00 -0.12654403D-04 -0.39631652D-05
 -0.00000000D+00  0.20867203D-03  0.65352884D-04  0.00000000D+00 -0.78932575D-03
 -0.24720474D-03  0.00000000D+00 -0.00000000D+00 -0.00000000D+00  0.81770808D-08
  0.25609361D-08 -0.00000000D+00 -0.00000000D+00 -0.00000000D+00 -0.00000000D+00
 -0.17170292D-06 -0.53774724D-07  0.00000000D+00
MO   11     MO 0.0        OCC NO =    0.0000000  ORB. ENERGY =    0.014548
  0.00000000D+00 -0.00000000D+00  0.00000000D+00 -0.00000000D+00  0.00000000D+00
 -0.00000000D+00  0.00000000D+00 -0.00000000D+00 -0.00000000D+00 -0.00000000D+00
  0.00000000D+00 -0.31748021D-06  0.10137158D-05 -0.00000000D+00  0.39631652D-05
 -0.12654403D-04  0.00000000D+00 -0.65352884D-04  0.20867203D-03 -0.00000000D+00
  0.24720474D-03 -0.78932575D-03 -0.00000000D+00 -0.00000000D+00 -0.00000000D+00
  0.25609361D-08 -0.81770808D-08  0.00000000D+00 -0.00000000D+00 -0.00000000D+00
 -0.00000000D+00 -0.53774724D-07  0.17170292D-06 -0.00000000D+00 -0.00000000D+00
  0.00000000D+00 -0.00000000D+00  0.00000000D+00 -0.00000000D+00  0.00000000D+00
 -0.00000000D+00  0.00000000D+00  0.00000000D+00 -0.00000000D+00 -0.00000000D+00
 -0.31748021D-06  0.10137158D-05 -0.00000000D+00  0.39631652D-05 -0.12654403D-04
  0.00000000D+00 -0.65352884D-04  0.20867203D-03 -0.00000000D+00  0.24720474D-03
 -0.78932575D-03  0.00000000D+00  0.00000000D+00  0.00000000D+00 -0.25609361D-08
  0.81770808D-08 -0.00000000D+00  0.00000000D+00  0.00000000D+00  0.00000000D+00
  0.53774724D-07 -0.17170292D-06 -0.00000000D+00
MO   12     MO 0.0        OCC NO =    0.0000000  ORB. ENERGY =    0.015544
  0.20049159D-03 -0.35327149D-01  0.56507662D-02 -0.63432093D-02  0.51775860D-02
 -0.27426731D-02  0.20969933D-02 -0.15962741D-02  0.61687630D-03 -0.27422345D-03
 -0.47445331D-06  0.00000000D+00  0.00000000D+00 -0.47882156D-03 -0.00000000D+00
 -0.00000000D+00  0.22108808D-03  0.00000000D+00 -0.00000000D+00 -0.84963513D-03
 -0.00000000D+00  0.00000000D+00 -0.12036518D-07 -0.11617338D-07 -0.11617338D-07
  0.00000000D+00  0.00000000D+00  0.00000000D+00 -0.21860055D-05 -0.21613650D-06
 -0.21613650D-06 -0.00000000D+00 -0.00000000D+00 -0.00000000D+00 -0.20049159D-03
  0.35327149D-01 -0.56507662D-02  0.63432093D-02 -0.51775860D-02  0.27426731D-02
 -0.20969933D-02  0.15962741D-02 -0.61687630D-03  0.27422345D-03 -0.47445331D-06
 -0.00000000D+00 -0.00000000D+00 -0.47882156D-03  0.00000000D+00  0.00000000D+00
  0.22108808D-03 -0.00000000D+00 -0.00000000D+00 -0.84963513D-03 -0.00000000D+00
  0.00000000D+00  0.12036518D-07  0.11617338D-07  0.11617338D-07  0.00000000D+00
  0.00000000D+00 -0.00000000D+00  0.21860055D-05  0.21613650D-06  0.21613650D-06
 -0.00000000D+00 -0.00000000D+00  0.00000000D+00
MO   13     MO 0.0        OCC NO =    0.0000000  ORB. ENERGY =    0.015680
  0.10129239D-03 -0.43709073D-04 -0.94036656D-03  0.11229989D-01 -0.15396676D-01
 -0.79334375D-03 -0.85248371D-02  0.12713273D-01  0.90379419D-03  0.30380841D-03
 -0.67744514D-05 -0.00000000D+00  0.00000000D+00  0.28470556D-05  0.00000000D+00
  0.00000000D+00 -0.50102002D-04 -0.00000000D+00 -0.00000000D+00 -0.23482761D-03
  0.00000000D+00  0.00000000D+00 -0.26240198D-07  0.10647491D-08  0.10647491D-08
 -0.00000000D+00  0.00000000D+00  0.00000000D+00  0.13020017D-07  0.32227482D-07
  0.32227482D-07  0.00000000D+00  0.00000000D+00 -0.00000000D+00  0.10129239D-03
 -0.43709073D-04 -0.94036656D-03  0.11229989D-01 -0.15396676D-01 -0.79334375D-03
 -0.85248371D-02  0.12713273D-01  0.90379419D-03  0.30380841D-03  0.67744514D-05
  0.00000000D+00 -0.00000000D+00 -0.28470556D-05 -0.00000000D+00 -0.00000000D+00
  0.50102002D-04 -0.00000000D+00 -0.00000000D+00  0.23482761D-03  0.00000000D+00
 -0.00000000D+00 -0.26240198D-07  0.10647491D-08  0.10647491D-08 -0.00000000D+00
  0.00000000D+00 -0.00000000D+00  0.13020017D-07  0.32227482D-07  0.32227482D-07
  0.00000000D+00  0.00000000D+00  0.00000000D+00
MO   14     MO 0.0        OCC NO =    0.0000000  ORB. ENERGY =    0.018832
 -0.27417194D-03  0.51772911D-01 -0.14475005D-01  0.21664671D-01 -0.21144001D-01
  0.65460465D-03 -0.10035135D-01  0.14121725D-01  0.62005603D-03  0.46396751D-03
 -0.97826851D-06 -0.00000000D+00 -0.00000000D+00  0.69523395D-03  0.00000000D+00
  0.00000000D+00 -0.40198650D-03 -0.00000000D+00 -0.00000000D+00 -0.22239753D-04
  0.00000000D+00  0.00000000D+00 -0.11885817D-08 -0.13148882D-08 -0.13148882D-08
 -0.00000000D+00 -0.00000000D+00 -0.00000000D+00  0.29202541D-05  0.85300636D-07
  0.85300636D-07  0.00000000D+00  0.00000000D+00  0.00000000D+00  0.27417194D-03
 -0.51772911D-01  0.14475005D-01 -0.21664671D-01  0.21144001D-01 -0.65460465D-03
  0.10035135D-01 -0.14121725D-01 -0.62005603D-03 -0.46396751D-03 -0.97826851D-06
  0.00000000D+00  0.00000000D+00  0.69523395D-03 -0.00000000D+00 -0.00000000D+00
 -0.40198650D-03  0.00000000D+00  0.00000000D+00 -0.22239753D-04 -0.00000000D+00
 -0.00000000D+00  0.11885817D-08  0.13148882D-08  0.13148882D-08 -0.00000000D+00
 -0.00000000D+00  0.00000000D+00 -0.29202541D-05 -0.85300636D-07 -0.85300636D-07
  0.00000000D+00  0.00000000D+00 -0.00000000D+00
MO   15     MO 0.0        OCC NO =    0.0000000  ORB. ENERGY =    0.021080
  0.00000000D+00 -0.00000000D+00 -0.00000000D+00  0.00000000D+00 -0.00000000D+00
 -0.00000000D+00 -0.00000000D+00  0.00000000D+00  0.00000000D+00  0.00000000D+00
 -0.00000000D+00  0.49901780D-04  0.61106647D-04 -0.00000000D+00 -0.44680423D-04
 -0.54712895D-04  0.00000000D+00  0.23360655D-03  0.28606020D-03 -0.00000000D+00
 -0.44785583D-03 -0.54841668D-03 -0.00000000D+00 -0.00000000D+00 -0.00000000D+00
  0.19937574D-06  0.24414326D-06 -0.00000000D+00 -0.00000000D+00 -0.00000000D+00
 -0.00000000D+00 -0.28839712D-06 -0.35315337D-06  0.00000000D+00 -0.00000000D+00
  0.00000000D+00 -0.00000000D+00 -0.00000000D+00  0.00000000D+00  0.00000000D+00
  0.00000000D+00 -0.00000000D+00 -0.00000000D+00  0.00000000D+00  0.00000000D+00
 -0.49901780D-04 -0.61106647D-04 -0.00000000D+00  0.44680423D-04  0.54712895D-04
  0.00000000D+00 -0.23360655D-03 -0.28606020D-03 -0.00000000D+00  0.44785583D-03
  0.54841668D-03 -0.00000000D+00  0.00000000D+00  0.00000000D+00  0.19937574D-06
  0.24414326D-06  0.00000000D+00  0.00000000D+00  0.00000000D+00  0.00000000D+00
 -0.28839712D-06 -0.35315337D-06 -0.00000000D+00
MO   16     MO 0.0        OCC NO =    0.0000000  ORB. ENERGY =    0.021080
 -0.00000000D+00  0.00000000D+00 -0.00000000D+00 -0.00000000D+00  0.00000000D+00
  0.00000000D+00  0.00000000D+00 -0.00000000D+00  0.00000000D+00 -0.00000000D+00
 -0.00000000D+00 -0.61106647D-04  0.49901780D-04  0.00000000D+00  0.54712895D-04
 -0.44680423D-04 -0.00000000D+00 -0.28606020D-03  0.23360655D-03  0.00000000D+00
  0.54841668D-03 -0.44785583D-03 -0.00000000D+00  0.00000000D+00  0.00000000D+00
 -0.24414326D-06  0.19937574D-06  0.00000000D+00  0.00000000D+00  0.00000000D+00
  0.00000000D+00  0.35315337D-06 -0.28839712D-06 -0.00000000D+00  0.00000000D+00
 -0.00000000D+00  0.00000000D+00  0.00000000D+00 -0.00000000D+00  0.00000000D+00
 -0.00000000D+00  0.00000000D+00 -0.00000000D+00 -0.00000000D+00  0.00000000D+00
  0.61106647D-04 -0.49901780D-04  0.00000000D+00 -0.54712895D-04  0.44680423D-04
 -0.00000000D+00  0.28606020D-03 -0.23360655D-03  0.00000000D+00 -0.54841668D-03
  0.44785583D-03 -0.00000000D+00 -0.00000000D+00 -0.00000000D+00 -0.24414326D-06
  0.19937574D-06 -0.00000000D+00 -0.00000000D+00 -0.00000000D+00 -0.00000000D+00
  0.35315337D-06 -0.28839712D-06  0.00000000D+00
MO   17     MO 0.0        OCC NO =    0.0000000  ORB. ENERGY =    0.026364
  0.72215727D-03 -0.21205382D-02  0.67792292D-02 -0.10678781D-01  0.84171392D-02
  0.20255631D-02  0.31063094D-02 -0.54839419D-02 -0.80300949D-03 -0.19778577D-05
 -0.50667931D-04 -0.00000000D+00  0.00000000D+00  0.52478605D-04  0.00000000D+00
 -0.00000000D+00 -0.25631674D-03 -0.00000000D+00  0.00000000D+00  0.55083459D-03
  0.00000000D+00  0.00000000D+00 -0.20199072D-06  0.10390500D-07  0.10390500D-07
 -0.00000000D+00  0.00000000D+00  0.00000000D+00  0.73918680D-06  0.34520562D-06
  0.34520562D-06  0.00000000D+00  0.00000000D+00  0.00000000D+00  0.72215727D-03
 -0.21205382D-02  0.67792292D-02 -0.10678781D-01  0.84171392D-02  0.20255631D-02
  0.31063094D-02 -0.54839419D-02 -0.80300949D-03 -0.19778577D-05  0.50667931D-04
  0.00000000D+00 -0.00000000D+00 -0.52478605D-04 -0.00000000D+00  0.00000000D+00
  0.25631674D-03  0.00000000D+00 -0.00000000D+00 -0.55083459D-03 -0.00000000D+00
 -0.00000000D+00 -0.20199072D-06  0.10390500D-07  0.10390500D-07 -0.00000000D+00
  0.00000000D+00 -0.00000000D+00  0.73918680D-06  0.34520562D-06  0.34520562D-06
  0.00000000D+00  0.00000000D+00 -0.00000000D+00
MO   18     MO 0.0        OCC NO =    0.0000000  ORB. ENERGY =    0.028136
  0.50552657D-03 -0.81784363D-01  0.34583076D-02  0.37534219D-02 -0.34778559D-02
 -0.81358817D-03 -0.13447209D-02  0.23140246D-02  0.30773674D-03  0.11334190D-04
 -0.45048070D-05  0.00000000D+00  0.00000000D+00 -0.11343402D-02 -0.00000000D+00
 -0.00000000D+00  0.65895715D-03  0.00000000D+00  0.00000000D+00 -0.65617475D-03
  0.00000000D+00 -0.00000000D+00 -0.71878937D-07 -0.61674646D-07 -0.61674646D-07
  0.00000000D+00  0.00000000D+00  0.00000000D+00 -0.57354802D-05 -0.11116174D-05
 -0.11116174D-05 -0.00000000D+00 -0.00000000D+00 -0.00000000D+00 -0.50552657D-03
  0.81784363D-01 -0.34583076D-02 -0.37534219D-02  0.34778559D-02  0.81358817D-03
  0.13447209D-02 -0.23140246D-02 -0.30773674D-03 -0.11334190D-04 -0.45048070D-05
 -0.00000000D+00 -0.00000000D+00 -0.11343402D-02  0.00000000D+00  0.00000000D+00
  0.65895715D-03 -0.00000000D+00 -0.00000000D+00 -0.65617475D-03 -0.00000000D+00
  0.00000000D+00  0.71878937D-07  0.61674646D-07  0.61674646D-07  0.00000000D+00
  0.00000000D+00 -0.00000000D+00  0.57354802D-05  0.11116174D-05  0.11116174D-05
 -0.00000000D+00 -0.00000000D+00  0.00000000D+00
MO   19     MO 0.0        OCC NO =    0.0000000  ORB. ENERGY =    0.030051
 -0.38671988D-02 -0.38525382D-02  0.17710707D-01 -0.17688200D-01  0.87582534D-02
  0.46386513D-02  0.22072070D-02 -0.55286841D-02 -0.14592894D-02  0.20486815D-03
  0.61579715D-04 -0.00000000D+00 -0.00000000D+00 -0.11215487D-03  0.00000000D+00
  0.00000000D+00  0.10552935D-03 -0.00000000D+00 -0.00000000D+00 -0.27275626D-03
  0.00000000D+00  0.00000000D+00  0.35084507D-06  0.89673919D-07  0.89673919D-07
 -0.00000000D+00 -0.00000000D+00 -0.00000000D+00  0.77802285D-06  0.19022159D-05
  0.19022159D-05  0.00000000D+00  0.00000000D+00  0.00000000D+00 -0.38671988D-02
 -0.38525383D-02  0.17710707D-01 -0.17688200D-01  0.87582534D-02  0.46386513D-02
  0.22072070D-02 -0.55286841D-02 -0.14592894D-02  0.20486815D-03 -0.61579715D-04
  0.00000000D+00  0.00000000D+00  0.11215487D-03 -0.00000000D+00 -0.00000000D+00
 -0.10552935D-03  0.00000000D+00  0.00000000D+00  0.27275626D-03 -0.00000000D+00
  0.00000000D+00  0.35084507D-06  0.89673919D-07  0.89673919D-07 -0.00000000D+00
 -0.00000000D+00  0.00000000D+00  0.77802285D-06  0.19022159D-05  0.19022159D-05
  0.00000000D+00  0.00000000D+00  0.00000000D+00
MO   20     MO 0.0        OCC NO =    0.0000000  ORB. ENERGY =    0.038717
 -0.88984699D-05 -0.86318479D-01  0.17536491D-01 -0.11186162D-01 -0.14031530D-03
  0.12753810D-01 -0.15653285D-02 -0.38515116D-02 -0.30384886D-02  0.78182226D-03
  0.39924399D-04  0.00000000D+00  0.00000000D+00 -0.11211471D-02 -0.00000000D+00
 -0.00000000D+00 -0.13331326D-03  0.00000000D+00  0.00000000D+00  0.17460683D-03
 -0.00000000D+00 -0.00000000D+00  0.59377463D-06  0.52289944D-06  0.52289944D-06
  0.00000000D+00  0.00000000D+00  0.00000000D+00 -0.67092766D-06  0.41240716D-05
  0.41240716D-05 -0.00000000D+00 -0.00000000D+00  0.00000000D+00  0.88984699D-05
  0.86318479D-01 -0.17536491D-01  0.11186162D-01  0.14031530D-03 -0.12753810D-01
  0.15653285D-02  0.38515116D-02  0.30384886D-02 -0.78182226D-03  0.39924399D-04
 -0.00000000D+00 -0.00000000D+00 -0.11211471D-02  0.00000000D+00  0.00000000D+00
 -0.13331326D-03 -0.00000000D+00 -0.00000000D+00  0.17460683D-03  0.00000000D+00
  0.00000000D+00 -0.59377463D-06 -0.52289944D-06 -0.52289944D-06  0.00000000D+00
  0.00000000D+00 -0.00000000D+00  0.67092766D-06 -0.41240716D-05 -0.41240716D-05
 -0.00000000D+00 -0.00000000D+00  0.00000000D+00
MO   21     MO 0.0        OCC NO =    0.0000000  ORB. ENERGY =    0.040476
 -0.00000000D+00  0.00000000D+00 -0.00000000D+00  0.00000000D+00  0.00000000D+00
 -0.00000000D+00  0.00000000D+00  0.00000000D+00  0.00000000D+00 -0.00000000D+00
  0.00000000D+00 -0.00000000D+00 -0.00000000D+00  0.00000000D+00  0.00000000D+00
 -0.00000000D+00 -0.00000000D+00  0.00000000D+00  0.00000000D+00  0.00000000D+00
 -0.00000000D+00 -0.00000000D+00  0.00000000D+00 -0.27361475D-08  0.27361475D-08
 -0.00000000D+00 -0.00000000D+00  0.97827541D-07  0.00000000D+00  0.36430194D-07
 -0.36430194D-07  0.00000000D+00  0.00000000D+00 -0.13025163D-05  0.00000000D+00
 -0.00000000D+00  0.00000000D+00 -0.00000000D+00 -0.00000000D+00  0.00000000D+00
 -0.00000000D+00 -0.00000000D+00 -0.00000000D+00  0.00000000D+00  0.00000000D+00
  0.00000000D+00  0.00000000D+00  0.00000000D+00 -0.00000000D+00 -0.00000000D+00
 -0.00000000D+00  0.00000000D+00  0.00000000D+00  0.00000000D+00 -0.00000000D+00
 -0.00000000D+00 -0.00000000D+00 -0.27361475D-08  0.27361475D-08 -0.00000000D+00
 -0.00000000D+00  0.97827541D-07 -0.00000000D+00  0.36430194D-07 -0.36430194D-07
 -0.00000000D+00 -0.00000000D+00 -0.13025163D-05
MO   22     MO 0.0        OCC NO =    0.0000000  ORB. ENERGY =    0.040476
 -0.00000000D+00  0.00000000D+00  0.00000000D+00 -0.00000000D+00  0.00000000D+00
 -0.00000000D+00 -0.00000000D+00 -0.00000000D+00 -0.00000000D+00 -0.00000000D+00
  0.00000000D+00 -0.00000000D+00 -0.00000000D+00  0.00000000D+00  0.00000000D+00
 -0.00000000D+00 -0.00000000D+00 -0.00000000D+00  0.00000000D+00 -0.00000000D+00
  0.00000000D+00 -0.00000000D+00  0.00000000D+00  0.48913770D-07 -0.48913770D-07
 -0.00000000D+00 -0.00000000D+00  0.54722951D-08  0.00000000D+00 -0.65125818D-06
  0.65125818D-06  0.00000000D+00 -0.00000000D+00 -0.72860395D-07 -0.00000000D+00
 -0.00000000D+00  0.00000000D+00  0.00000000D+00 -0.00000000D+00  0.00000000D+00
 -0.00000000D+00 -0.00000000D+00 -0.00000000D+00  0.00000000D+00 -0.00000000D+00
  0.00000000D+00  0.00000000D+00  0.00000000D+00 -0.00000000D+00 -0.00000000D+00
 -0.00000000D+00  0.00000000D+00  0.00000000D+00  0.00000000D+00 -0.00000000D+00
 -0.00000000D+00 -0.00000000D+00  0.48913770D-07 -0.48913770D-07 -0.00000000D+00
 -0.00000000D+00  0.54722951D-08 -0.00000000D+00 -0.65125818D-06  0.65125818D-06
  0.00000000D+00 -0.00000000D+00 -0.72860395D-07
MO   23     MO 0.0        OCC NO =    0.0000000  ORB. ENERGY =    0.042170
  0.13339134D-02 -0.19444814D+00  0.62721259D-02 -0.40520330D-02 -0.39286396D-02
  0.12498422D-01 -0.25096712D-02 -0.22700027D-02 -0.28015058D-02  0.77940619D-03
 -0.21492300D-04  0.00000000D+00  0.00000000D+00 -0.24688213D-02 -0.00000000D+00
 -0.00000000D+00 -0.19448018D-04  0.00000000D+00  0.00000000D+00  0.91989015D-04
 -0.00000000D+00 -0.00000000D+00 -0.46616472D-06 -0.52545890D-06 -0.52545890D-06
  0.00000000D+00  0.00000000D+00  0.00000000D+00 -0.11562220D-04 -0.71867580D-06
 -0.71867580D-06 -0.00000000D+00 -0.00000000D+00 -0.00000000D+00 -0.13339134D-02
  0.19444814D+00 -0.62721259D-02  0.40520330D-02  0.39286396D-02 -0.12498422D-01
  0.25096712D-02  0.22700027D-02  0.28015058D-02 -0.77940619D-03 -0.21492300D-04
 -0.00000000D+00 -0.00000000D+00 -0.24688213D-02  0.00000000D+00  0.00000000D+00
 -0.19448018D-04 -0.00000000D+00 -0.00000000D+00  0.91989015D-04  0.00000000D+00
  0.00000000D+00  0.46616472D-06  0.52545890D-06  0.52545890D-06  0.00000000D+00
  0.00000000D+00 -0.00000000D+00  0.11562220D-04  0.71867580D-06  0.71867580D-06
 -0.00000000D+00 -0.00000000D+00  0.00000000D+00
MO   24     MO 0.0        OCC NO =    0.0000000  ORB. ENERGY =    0.043173
  0.96768186D-02 -0.36950554D-02 -0.15215796D-02  0.14958483D-03 -0.13774233D-02
  0.31476668D-02 -0.70906373D-03 -0.45371927D-03 -0.69237910D-03  0.19759627D-03
 -0.27741413D-03 -0.00000000D+00  0.00000000D+00  0.90135181D-04  0.00000000D+00
 -0.00000000D+00 -0.64134177D-04 -0.00000000D+00  0.00000000D+00  0.66898331D-04
  0.00000000D+00 -0.00000000D+00 -0.13990238D-05 -0.16819397D-06 -0.16819397D-06
 -0.00000000D+00  0.00000000D+00 -0.00000000D+00 -0.27870440D-06 -0.11985857D-05
 -0.11985857D-05  0.00000000D+00 -0.00000000D+00  0.00000000D+00  0.96768186D-02
 -0.36950554D-02 -0.15215796D-02  0.14958483D-03 -0.13774233D-02  0.31476668D-02
 -0.70906373D-03 -0.45371927D-03 -0.69237910D-03  0.19759627D-03  0.27741413D-03
  0.00000000D+00 -0.00000000D+00 -0.90135181D-04 -0.00000000D+00  0.00000000D+00