[Molden Format]
[Title]
 Molden2AIM, Version 3.1.0 (02/25/2015)           Time: Thu Oct 17 19:54:26 2024

[Atoms] AU
E+       1       4     0.00000000     0.00000000     0.00000000
E+       2       4    32.80000000     0.00000000     0.00000000
[GTO]
    1 0
 S   1 1.0
    0.1000000000D-03      0.1000000000D+01
 S   1 1.0
    0.3000000000D-03      0.1000000000D+01
 S   1 1.0
    0.9000000000D-03      0.1000000000D+01
 S   1 1.0
    0.2700000000D-02      0.1000000000D+01
 S   1 1.0
    0.8100000000D-02      0.1000000000D+01
 S   1 1.0
    0.2430000000D-01      0.1000000000D+01
 S   1 1.0
    0.7290000000D-01      0.1000000000D+01
 S   1 1.0
    0.2187000000D+00      0.1000000000D+01
 S   1 1.0
    0.6561000000D+00      0.1000000000D+01
 S   1 1.0
    0.1968300000D+01      0.1000000000D+01
 P   1 1.0
    0.1000000000D-03      0.1000000000D+01
 P   1 1.0
    0.3000000000D-03      0.1000000000D+01
 P   1 1.0
    0.9000000000D-03      0.1000000000D+01
 P   1 1.0
    0.2700000000D-02      0.1000000000D+01
 D   1 1.0
    0.1000000000D-03      0.1000000000D+01
 D   1 1.0
    0.3000000000D-03      0.1000000000D+01

    2 0
 S   1 1.0
    0.1000000000D-03      0.1000000000D+01
 S   1 1.0
    0.3000000000D-03      0.1000000000D+01
 S   1 1.0
    0.9000000000D-03      0.1000000000D+01
 S   1 1.0
    0.2700000000D-02      0.1000000000D+01
 S   1 1.0
    0.8100000000D-02      0.1000000000D+01
 S   1 1.0
    0.2430000000D-01      0.1000000000D+01
 S   1 1.0
    0.7290000000D-01      0.1000000000D+01
 S   1 1.0
    0.2187000000D+00      0.1000000000D+01
 S   1 1.0
    0.6561000000D+00      0.1000000000D+01
 S   1 1.0
    0.1968300000D+01      0.1000000000D+01
 P   1 1.0
    0.1000000000D-03      0.1000000000D+01
 P   1 1.0
    0.3000000000D-03      0.1000000000D+01
 P   1 1.0
    0.9000000000D-03      0.1000000000D+01
 P   1 1.0
    0.2700000000D-02      0.1000000000D+01
 D   1 1.0
    0.1000000000D-03      0.1000000000D+01
 D   1 1.0
    0.3000000000D-03      0.1000000000D+01


[MO]
 Ene=         -0.00361081
 Spin= Alpha
 Occup=        1.00000000
    1        0.0836259100
    2       -0.0737347600
    3        0.0007151100
    4       -0.2426375400
    5       -0.2633879200
    6       -0.1851665200
    7       -0.1173787000
    8        0.0945973200
    9        0.0064020000
   10       -0.0000822400
   11       -0.3083027400
   12        0.0000000000
   13       -0.0000000000
   14        0.1057077300
   15       -0.0000000000
   16       -0.0000000000
   17       -0.0568722200
   18        0.0000000000
   19       -0.0000000000
   20        0.0199044300
   21        0.0000000000
   22        0.0000000000
   23       -0.0869694300
   24        0.0026407800
   25        0.0026407800
   26        0.0000000000
   27       -0.0000000000
   28        0.0000000000
   29        0.0546825000
   30        0.0108160700
   31        0.0108160700
   32       -0.0000000000
   33       -0.0000000000
   34       -0.0000000000
   35        0.0836259100
   36       -0.0737347600
   37        0.0007151100
   38       -0.2426375400
   39       -0.2633879200
   40       -0.1851665200
   41       -0.1173787000
   42        0.0945973200
   43        0.0064020000
   44       -0.0000822400
   45        0.3083027400
   46       -0.0000000000
   47        0.0000000000
   48       -0.1057077300
   49        0.0000000000
   50        0.0000000000
   51        0.0568722200
   52       -0.0000000000
   53       -0.0000000000
   54       -0.0199044300
   55        0.0000000000
   56        0.0000000000
   57       -0.0869694300
   58        0.0026407800
   59        0.0026407800
   60        0.0000000000
   61       -0.0000000000
   62       -0.0000000000
   63        0.0546825000
   64        0.0108160700
   65        0.0108160700
   66        0.0000000000
   67        0.0000000000
   68        0.0000000000
 Ene=         -0.00300141
 Spin= Alpha
 Occup=        0.00000000
    1        0.0024209300
    2        0.0088079400
    3        0.0551103000
    4        0.3173038300
    5        0.2639548800
    6        0.2058422700
    7        0.1211628900
    8       -0.0992289900
    9       -0.0070200700
   10        0.0001292800
   11       -0.0127528200
   12       -0.0000000000
   13       -0.0000000000
   14       -0.0221581700
   15        0.0000000000
   16        0.0000000000
   17        0.0872237300
   18       -0.0000000000
   19       -0.0000000000
   20       -0.0123714600
   21        0.0000000000
   22        0.0000000000
   23       -0.0200072700
   24       -0.0103396600
   25       -0.0103396600
   26       -0.0000000000
   27       -0.0000000000
   28        0.0000000000
   29       -0.0340000300
   30       -0.0437583100
   31       -0.0437583100
   32        0.0000000000
   33        0.0000000000
   34        0.0000000000
   35       -0.0024209300
   36       -0.0088079400
   37       -0.0551103000
   38       -0.3173038300
   39       -0.2639548800
   40       -0.2058422700
   41       -0.1211628900
   42        0.0992289900
   43        0.0070200700
   44       -0.0001292800
   45       -0.0127528200
   46        0.0000000000
   47        0.0000000000
   48       -0.0221581700
   49       -0.0000000000
   50       -0.0000000000
   51        0.0872237300
   52        0.0000000000
   53       -0.0000000000
   54       -0.0123714600
   55        0.0000000000
   56        0.0000000000
   57        0.0200072700
   58        0.0103396600
   59        0.0103396600
   60       -0.0000000000
   61       -0.0000000000
   62       -0.0000000000
   63        0.0340000300
   64        0.0437583100
   65        0.0437583100
   66        0.0000000000
   67        0.0000000000
   68       -0.0000000000
 Ene=          0.00410905
 Spin= Alpha
 Occup=        0.00000000
    1       -0.7477186400
    2       -0.0081978400
    3        1.0845641900
    4       -0.7916361000
    5       -0.0322198900
    6       -0.1124256800
    7       -0.0355037800
    8        0.0343428300
    9        0.0033768700
   10       -0.0001766300
   11        1.7819076400
   12        0.0000000000
   13        0.0000000000
   14       -0.5594731300
   15       -0.0000000000
   16       -0.0000000000
   17        0.4955229300
   18        0.0000000000
   19        0.0000000000
   20       -0.0505692600
   21       -0.0000000000
   22       -0.0000000000
   23        0.5358946400
   24        0.0234003600
   25        0.0234003600
   26       -0.0000000000
   27        0.0000000000
   28        0.0000000000
   29       -0.1250662300
   30        0.0830901900
   31        0.0830901900
   32        0.0000000000
   33        0.0000000000
   34        0.0000000000
   35       -0.7477186400
   36       -0.0081978400
   37        1.0845641900
   38       -0.7916361000
   39       -0.0322198900
   40       -0.1124256800
   41       -0.0355037800
   42        0.0343428300
   43        0.0033768700
   44       -0.0001766300
   45       -1.7819076400
   46       -0.0000000000
   47       -0.0000000000
   48        0.5594731300
   49       -0.0000000000
   50        0.0000000000
   51       -0.4955229300
   52        0.0000000000
   53        0.0000000000
   54        0.0505692600
   55       -0.0000000000
   56       -0.0000000000
   57        0.5358946400
   58        0.0234003600
   59        0.0234003600
   60        0.0000000000
   61        0.0000000000
   62       -0.0000000000
   63       -0.1250662300
   64        0.0830901900
   65        0.0830901900
   66       -0.0000000000
   67       -0.0000000000
   68       -0.0000000000
 Ene=          0.00523005
 Spin= Alpha
 Occup=        0.00000000
    1       -0.0000000000
    2        0.0000000000
    3       -0.0000000000
    4        0.0000000000
    5       -0.0000000000
    6        0.0000000000
    7       -0.0000000000
    8       -0.0000000000
    9        0.0000000000
   10        0.0000000000
   11        0.0000000000
   12        0.0268761500
   13        0.0013401900
   14       -0.0000000000
   15       -0.0895518600
   16       -0.0044655300
   17       -0.0000000000
   18        0.3287219600
   19        0.0163918200
   20        0.0000000000
   21        0.3544050900
   22        0.0176725100
   23        0.0000000000
   24       -0.0000000000
   25        0.0000000000
   26        0.0023529000
   27        0.0001173300
   28        0.0000000000
   29        0.0000000000
   30        0.0000000000
   31        0.0000000000
   32        0.0246223200
   33        0.0012278000
   34        0.0000000000
   35       -0.0000000000
   36        0.0000000000
   37       -0.0000000000
   38        0.0000000000
   39        0.0000000000
   40       -0.0000000000
   41        0.0000000000
   42       -0.0000000000
   43        0.0000000000
   44       -0.0000000000
   45       -0.0000000000
   46        0.0268761500
   47        0.0013401900
   48        0.0000000000
   49       -0.0895518600
   50       -0.0044655300
   51       -0.0000000000
   52        0.3287219600
   53        0.0163918200
   54        0.0000000000
   55        0.3544050900
   56        0.0176725100
   57        0.0000000000
   58        0.0000000000
   59       -0.0000000000
   60       -0.0023529000
   61       -0.0001173300
   62       -0.0000000000
   63        0.0000000000
   64        0.0000000000
   65        0.0000000000
   66       -0.0246223200
   67       -0.0012278000
   68       -0.0000000000
 Ene=          0.00523005
 Spin= Alpha
 Occup=        0.00000000
    1       -0.0000000000
    2       -0.0000000000
    3        0.0000000000
    4        0.0000000000
    5       -0.0000000000
    6        0.0000000000
    7       -0.0000000000
    8        0.0000000000
    9        0.0000000000
   10       -0.0000000000
   11        0.0000000000
   12        0.0013401900
   13       -0.0268761500
   14        0.0000000000
   15       -0.0044655300
   16        0.0895518600
   17       -0.0000000000
   18        0.0163918200
   19       -0.3287219600
   20        0.0000000000
   21        0.0176725100
   22       -0.3544050900
   23        0.0000000000
   24        0.0000000000
   25        0.0000000000
   26        0.0001173300
   27       -0.0023529000
   28        0.0000000000
   29        0.0000000000
   30        0.0000000000
   31        0.0000000000
   32        0.0012278000
   33       -0.0246223200
   34       -0.0000000000
   35       -0.0000000000
   36       -0.0000000000
   37       -0.0000000000
   38        0.0000000000
   39        0.0000000000
   40        0.0000000000
   41       -0.0000000000
   42        0.0000000000
   43       -0.0000000000
   44        0.0000000000
   45       -0.0000000000
   46        0.0013401900
   47       -0.0268761500
   48       -0.0000000000
   49       -0.0044655300
   50        0.0895518600
   51        0.0000000000
   52        0.0163918200
   53       -0.3287219600
   54       -0.0000000000
   55        0.0176725100
   56       -0.3544050900
   57        0.0000000000
   58       -0.0000000000
   59       -0.0000000000
   60       -0.0001173300
   61        0.0023529000
   62       -0.0000000000
   63        0.0000000000
   64        0.0000000000
   65        0.0000000000
   66       -0.0012278000
   67        0.0246223200
   68        0.0000000000
 Ene=          0.00774204
 Spin= Alpha
 Occup=        0.00000000
    1        0.0000000000
    2        0.0000000000
    3       -0.0000000000
    4        0.0000000000
    5        0.0000000000
    6       -0.0000000000
    7        0.0000000000
    8       -0.0000000000
    9        0.0000000000
   10       -0.0000000000
   11        0.0000000000
   12        0.3791475200
   13        1.2520957600
   14        0.0000000000
   15       -0.0685806500
   16       -0.2264805400
   17       -0.0000000000
   18        0.0576689300
   19        0.1904457300
   20       -0.0000000000
   21        0.2084324800
   22        0.6883268700
   23        0.0000000000
   24       -0.0000000000
   25       -0.0000000000
   26        0.0613257500
   27        0.2025220000
   28        0.0000000000
   29        0.0000000000
   30       -0.0000000000
   31       -0.0000000000
   32       -0.0122190000
   33       -0.0403520000
   34        0.0000000000
   35       -0.0000000000
   36       -0.0000000000
   37        0.0000000000
   38       -0.0000000000
   39        0.0000000000
   40       -0.0000000000
   41       -0.0000000000
   42       -0.0000000000
   43        0.0000000000
   44        0.0000000000
   45        0.0000000000
   46       -0.3791475200
   47       -1.2520957600
   48        0.0000000000
   49        0.0685806500
   50        0.2264805400
   51       -0.0000000000
   52       -0.0576689300
   53       -0.1904457300
   54        0.0000000000
   55       -0.2084324800
   56       -0.6883268700
   57        0.0000000000
   58        0.0000000000
   59        0.0000000000
   60        0.0613257500
   61        0.2025220000
   62        0.0000000000
   63       -0.0000000000
   64       -0.0000000000
   65       -0.0000000000
   66       -0.0122190000
   67       -0.0403520000
   68       -0.0000000000
 Ene=          0.00774204
 Spin= Alpha
 Occup=        0.00000000
    1       -0.0000000000
    2       -0.0000000000
    3       -0.0000000000
    4       -0.0000000000
    5        0.0000000000
    6        0.0000000000
    7        0.0000000000
    8       -0.0000000000
    9       -0.0000000000
   10        0.0000000000
   11       -0.0000000000
   12        1.2520957600
   13       -0.3791475200
   14       -0.0000000000
   15       -0.2264805400
   16        0.0685806500
   17        0.0000000000
   18        0.1904457300
   19       -0.0576689300
   20       -0.0000000000
   21        0.6883268700
   22       -0.2084324800
   23       -0.0000000000
   24       -0.0000000000
   25       -0.0000000000
   26        0.2025220000
   27       -0.0613257500
   28        0.0000000000
   29       -0.0000000000
   30       -0.0000000000
   31       -0.0000000000
   32       -0.0403520000
   33        0.0122190000
   34       -0.0000000000
   35        0.0000000000
   36        0.0000000000
   37        0.0000000000
   38       -0.0000000000
   39        0.0000000000
   40       -0.0000000000
   41        0.0000000000
   42       -0.0000000000
   43        0.0000000000
   44       -0.0000000000
   45       -0.0000000000
   46       -1.2520957600
   47        0.3791475200
   48       -0.0000000000
   49        0.2264805400
   50       -0.0685806500
   51       -0.0000000000
   52       -0.1904457300
   53        0.0576689300
   54        0.0000000000
   55       -0.6883268700
   56        0.2084324800
   57        0.0000000000
   58        0.0000000000
   59        0.0000000000
   60        0.2025220000
   61       -0.0613257500
   62       -0.0000000000
   63        0.0000000000
   64       -0.0000000000
   65        0.0000000000
   66       -0.0403520000
   67        0.0122190000
   68        0.0000000000
 Ene=          0.00847898
 Spin= Alpha
 Occup=        0.00000000
    1       -0.0222712900
    2        0.0087416600
    3        3.3910460700
    4        0.1328554100
    5       -0.5426120400
    6       -0.0211950700
    7       -0.0806847600
    8        0.0535686100
    9        0.0017635800
   10        0.0002279200
   11        0.1239745200
   12       -0.0000000000
   13       -0.0000000000
   14       -0.0315689400
   15        0.0000000000
   16        0.0000000000
   17        1.2439687400
   18       -0.0000000000
   19       -0.0000000000
   20        0.1929615900
   21        0.0000000000
   22        0.0000000000
   23        0.0981380300
   24        0.1878474700
   25        0.1878474700
   26       -0.0000000000
   27       -0.0000000000
   28       -0.0000000000
   29        0.2617456500
   30        0.1056939200
   31        0.1056939200
   32        0.0000000000
   33       -0.0000000000
   34       -0.0000000000
   35        0.0222712900
   36       -0.0087416600
   37       -3.3910460700
   38       -0.1328554100
   39        0.5426120400
   40        0.0211950700
   41        0.0806847600
   42       -0.0535686100
   43       -0.0017635800
   44       -0.0002279200
   45        0.1239745200
   46        0.0000000000
   47        0.0000000000
   48       -0.0315689400
   49       -0.0000000000
   50       -0.0000000000
   51        1.2439687400
   52        0.0000000000
   53        0.0000000000
   54        0.1929615900
   55       -0.0000000000
   56       -0.0000000000
   57       -0.0981380300
   58       -0.1878474700
   59       -0.1878474700
   60       -0.0000000000
   61       -0.0000000000
   62        0.0000000000
   63       -0.2617456500
   64       -0.1056939200
   65       -0.1056939200
   66        0.0000000000
   67        0.0000000000
   68       -0.0000000000
 Ene=          0.00890813
 Spin= Alpha
 Occup=        0.00000000
    1       -0.2483125600
    2        0.2068904200
    3        0.2483519200
    4       -0.3466411000
    5        0.2008557900
    6       -0.0411004300
    7        0.0235163300
    8       -0.0107653400
    9        0.0006484600
   10       -0.0001886800
   11        1.0563778900
   12        0.0000000000
   13       -0.0000000000
   14       -0.3066018100
   15       -0.0000000000
   16        0.0000000000
   17        0.2836283900
   18        0.0000000000
   19       -0.0000000000
   20       -0.6889632100
   21       -0.0000000000
   22       -0.0000000000
   23        0.2910787000
   24       -0.0148293800
   25       -0.0148293800
   26        0.0000000000
   27       -0.0000000000
   28        0.0000000000
   29       -0.1660135100
   30       -0.0488416600
   31       -0.0488416600
   32       -0.0000000000
   33        0.0000000000
   34       -0.0000000000
   35       -0.2483125600
   36        0.2068904200
   37        0.2483519200
   38       -0.3466411000
   39        0.2008557900
   40       -0.0411004300
   41        0.0235163300
   42       -0.0107653400
   43        0.0006484600
   44       -0.0001886800
   45       -1.0563778900
   46       -0.0000000000
   47        0.0000000000
   48        0.3066018100
   49        0.0000000000
   50       -0.0000000000
   51       -0.2836283900
   52       -0.0000000000
   53        0.0000000000
   54        0.6889632100
   55        0.0000000000
   56       -0.0000000000
   57        0.2910787000
   58       -0.0148293800
   59       -0.0148293800
   60        0.0000000000
   61       -0.0000000000
   62        0.0000000000
   63       -0.1660135100
   64       -0.0488416600
   65       -0.0488416600
   66       -0.0000000000
   67        0.0000000000
   68       -0.0000000000
 Ene=          0.01228330
 Spin= Alpha
 Occup=        0.00000000
    1        0.0000000000
    2       -0.0000000000
    3       -0.0000000000
    4        0.0000000000
    5       -0.0000000000
    6        0.0000000000
    7       -0.0000000000
    8        0.0000000000
    9        0.0000000000
   10        0.0000000000
   11       -0.0000000000
   12       -0.0581951700
   13       -0.0238621600
   14        0.0000000000
   15        0.1998935600
   16        0.0819636900
   17       -0.0000000000
   18       -0.8762212600
   19       -0.3592828700
   20        0.0000000000
   21        0.8603209400
   22        0.3527631600
   23       -0.0000000000
   24        0.0000000000
   25        0.0000000000
   26       -0.0050253900
   27       -0.0020605900
   28        0.0000000000
   29        0.0000000000
   30        0.0000000000
   31        0.0000000000
   32       -0.0522678400
   33       -0.0214317300
   34       -0.0000000000
   35        0.0000000000
   36       -0.0000000000
   37       -0.0000000000
   38        0.0000000000
   39       -0.0000000000
   40        0.0000000000
   41       -0.0000000000
   42        0.0000000000
   43        0.0000000000
   44        0.0000000000
   45        0.0000000000
   46       -0.0581951700
   47       -0.0238621600
   48       -0.0000000000
   49        0.1998935600
   50        0.0819636900
   51        0.0000000000
   52       -0.8762212600
   53       -0.3592828700
   54       -0.0000000000
   55        0.8603209400
   56        0.3527631600
   57       -0.0000000000
   58        0.0000000000
   59        0.0000000000
   60        0.0050253900
   61        0.0020605900
   62       -0.0000000000
   63        0.0000000000
   64        0.0000000000
   65        0.0000000000
   66        0.0522678400
   67        0.0214317300
   68        0.0000000000
 Ene=          0.01228330
 Spin= Alpha
 Occup=        0.00000000
    1        0.0000000000
    2       -0.0000000000
    3       -0.0000000000
    4        0.0000000000
    5       -0.0000000000
    6        0.0000000000
    7       -0.0000000000
    8        0.0000000000
    9        0.0000000000
   10        0.0000000000
   11       -0.0000000000
   12       -0.0238621600
   13        0.0581951700
   14        0.0000000000
   15        0.0819636900
   16       -0.1998935600
   17       -0.0000000000
   18       -0.3592828700
   19        0.8762212600
   20       -0.0000000000
   21        0.3527631600
   22       -0.8603209400
   23       -0.0000000000
   24       -0.0000000000
   25       -0.0000000000
   26       -0.0020605900
   27        0.0050253900
   28        0.0000000000
   29        0.0000000000
   30        0.0000000000
   31        0.0000000000
   32       -0.0214317300
   33        0.0522678400
   34       -0.0000000000
   35        0.0000000000
   36       -0.0000000000
   37        0.0000000000
   38        0.0000000000
   39       -0.0000000000
   40        0.0000000000
   41       -0.0000000000
   42        0.0000000000
   43        0.0000000000
   44       -0.0000000000
   45        0.0000000000
   46       -0.0238621600
   47        0.0581951700
   48       -0.0000000000
   49        0.0819636900
   50       -0.1998935600
   51        0.0000000000
   52       -0.3592828700
   53        0.8762212600
   54       -0.0000000000
   55        0.3527631600
   56       -0.8603209400
   57       -0.0000000000
   58        0.0000000000
   59        0.0000000000
   60        0.0020605900
   61       -0.0050253900
   62       -0.0000000000
   63        0.0000000000
   64        0.0000000000
   65        0.0000000000
   66        0.0214317300
   67       -0.0522678400
   68       -0.0000000000
 Ene=          0.01232470
 Spin= Alpha
 Occup=        0.00000000
    1       -0.3897114200
    2        0.3617932700
    3        0.2947380400
    4       -1.6917691500
    5        1.0591391000
    6       -0.0233578800
    7        0.1231380900
    8       -0.0760152300
    9       -0.0013758600
   10       -0.0004868900
   11        1.9424429200
   12        0.0000000000
   13        0.0000000000
   14       -0.3706744300
   15       -0.0000000000
   16       -0.0000000000
   17        0.5251135200
   18       -0.0000000000
   19       -0.0000000000
   20       -0.0406173700
   21        0.0000000000
   22        0.0000000000
   23        0.5221005200
   24       -0.0358438800
   25       -0.0358438800
   26        0.0000000000
   27        0.0000000000
   28        0.0000000000
   29       -0.2373966000
   30       -0.1278014300
   31       -0.1278014300
   32       -0.0000000000
   33       -0.0000000000
   34        0.0000000000
   35       -0.3897114200
   36        0.3617932700
   37        0.2947380400
   38       -1.6917691500
   39        1.0591391000
   40       -0.0233578800
   41        0.1231380900
   42       -0.0760152300
   43       -0.0013758600
   44       -0.0004868900
   45       -1.9424429200
   46       -0.0000000000
   47       -0.0000000000
   48        0.3706744300
   49        0.0000000000
   50        0.0000000000
   51       -0.5251135200
   52       -0.0000000000
   53       -0.0000000000
   54        0.0406173700
   55        0.0000000000
   56        0.0000000000
   57        0.5221005200
   58       -0.0358438800
   59       -0.0358438800
   60        0.0000000000
   61        0.0000000000
   62        0.0000000000
   63       -0.2373966000
   64       -0.1278014300
   65       -0.1278014300
   66       -0.0000000000
   67       -0.0000000000
   68       -0.0000000000
 Ene=          0.01270910
 Spin= Alpha
 Occup=        0.00000000
    1        0.0174516500
    2        0.0037332600
    3       -2.2026444000
    4        0.1187509300
    5       -0.0174275800
    6       -0.0771500600
    7       -0.0110897000
    8        0.0148078400
    9        0.0020246300
   10       -0.0001546100
   11       -0.0961972200
   12        0.0000000000
   13        0.0000000000
   14       -0.0032214000
   15       -0.0000000000
   16       -0.0000000000
   17       -0.7354498400
   18        0.0000000000
   19       -0.0000000000
   20       -1.2224170000
   21       -0.0000000000
   22        0.0000000000
   23       -0.0893172000
   24       -0.1358570100
   25       -0.1358570100
   26        0.0000000000
   27        0.0000000000
   28        0.0000000000
   29       -0.2083524500
   30       -0.1195704400
   31       -0.1195704400
   32       -0.0000000000
   33       -0.0000000000
   34       -0.0000000000
   35       -0.0174516500
   36       -0.0037332600
   37        2.2026444000
   38       -0.1187509300
   39        0.0174275800
   40        0.0771500600
   41        0.0110897000
   42       -0.0148078400
   43       -0.0020246300
   44        0.0001546100
   45       -0.0961972200
   46       -0.0000000000
   47       -0.0000000000
   48       -0.0032214000
   49        0.0000000000
   50        0.0000000000
   51       -0.7354498400
   52       -0.0000000000
   53       -0.0000000000
   54       -1.2224170000
   55        0.0000000000
   56        0.0000000000
   57        0.0893172000
   58        0.1358570100
   59        0.1358570100
   60        0.0000000000
   61        0.0000000000
   62        0.0000000000
   63        0.2083524500
   64        0.1195704400
   65        0.1195704400
   66       -0.0000000000
   67       -0.0000000000
   68       -0.0000000000
 Ene=          0.01756690
 Spin= Alpha
 Occup=        0.00000000
    1       -0.0104343700
    2        0.0328521200
    3        5.1594575800
    4       -3.0486979000
    5        1.3745579000
    6       -0.1081136700
    7        0.1194636600
    8       -0.0655410500
    9        0.0004830100
   10       -0.0006591200
   11        0.0607777900
   12       -0.0000000000
   13       -0.0000000000
   14       -0.0545829000
   15        0.0000000000
   16        0.0000000000
   17        1.8970537100
   18       -0.0000000000
   19       -0.0000000000
   20       -0.4971624700
   21        0.0000000000
   22        0.0000000000
   23        0.0089263400
   24        0.1186082500
   25        0.1186082500
   26       -0.0000000000
   27       -0.0000000000
   28        0.0000000000
   29        0.1449349900
   30       -0.0321291800
   31       -0.0321291800
   32        0.0000000000
   33        0.0000000000
   34       -0.0000000000
   35        0.0104343700
   36       -0.0328521200
   37       -5.1594575800
   38        3.0486979000
   39       -1.3745579000
   40        0.1081136700
   41       -0.1194636600
   42        0.0655410500
   43       -0.0004830100
   44        0.0006591200
   45        0.0607777900
   46        0.0000000000
   47        0.0000000000
   48       -0.0545829000
   49       -0.0000000000
   50       -0.0000000000
   51        1.8970537100
   52        0.0000000000
   53        0.0000000000
   54       -0.4971624700
   55       -0.0000000000
   56       -0.0000000000
   57       -0.0089263400
   58       -0.1186082500
   59       -0.1186082500
   60       -0.0000000000
   61       -0.0000000000
   62       -0.0000000000
   63       -0.1449349900
   64        0.0321291800
   65        0.0321291800
   66        0.0000000000
   67        0.0000000000
   68        0.0000000000
 Ene=          0.01827350
 Spin= Alpha
 Occup=        0.00000000
    1       -0.0000000000
    2       -0.0000000000
    3        0.0000000000
    4       -0.0000000000
    5        0.0000000000
    6       -0.0000000000
    7        0.0000000000
    8       -0.0000000000
    9       -0.0000000000
   10       -0.0000000000
   11       -0.0000000000
   12       10.4672086100
   13        0.6272151300
   14       -0.0000000000
   15       -2.2601582500
   16       -0.1354330000
   17        0.0000000000
   18        1.8700864200
   19        0.1120591500
   20       -0.0000000000
   21       -0.8890140200
   22       -0.0532714200
   23       -0.0000000000
   24        0.0000000000
   25        0.0000000000
   26        1.7014003100
   27        0.1019511600
   28        0.0000000000
   29       -0.0000000000
   30        0.0000000000
   31        0.0000000000
   32       -0.4596080400
   33       -0.0275405900
   34       -0.0000000000
   35        0.0000000000
   36        0.0000000000
   37       -0.0000000000
   38        0.0000000000
   39       -0.0000000000
   40        0.0000000000
   41       -0.0000000000
   42        0.0000000000
   43        0.0000000000
   44        0.0000000000
   45        0.0000000000
   46      -10.4672086100
   47       -0.6272151300
   48       -0.0000000000
   49        2.2601582500
   50        0.1354330000
   51        0.0000000000
   52       -1.8700864200
   53       -0.1120591500
   54       -0.0000000000
   55        0.8890140200
   56        0.0532714200
   57       -0.0000000000
   58        0.0000000000
   59        0.0000000000
   60        1.7014003100
   61        0.1019511600
   62       -0.0000000000
   63        0.0000000000
   64        0.0000000000
   65        0.0000000000
   66       -0.4596080400
   67       -0.0275405900
   68        0.0000000000
 Ene=          0.01827350
 Spin= Alpha
 Occup=        0.00000000
    1       -0.0000000000
    2       -0.0000000000
    3        0.0000000000
    4        0.0000000000
    5        0.0000000000
    6       -0.0000000000
    7        0.0000000000
    8        0.0000000000
    9       -0.0000000000
   10        0.0000000000
   11       -0.0000000000
   12        0.6272151300
   13      -10.4672086100
   14       -0.0000000000
   15       -0.1354330000
   16        2.2601582500