[Molden Format]
[Title]
 Molden2AIM, Version 3.1.0 (02/25/2015)           Time: Thu Oct 17 19:52:24 2024

[Atoms] AU
E+       1       4     0.00000000     0.00000000     0.00000000
E+       2       4     6.80000000     0.00000000     0.00000000
[GTO]
    1 0
 S   1 1.0
    0.1000000000D-03      0.1000000000D+01
 S   1 1.0
    0.3000000000D-03      0.1000000000D+01
 S   1 1.0
    0.9000000000D-03      0.1000000000D+01
 S   1 1.0
    0.2700000000D-02      0.1000000000D+01
 S   1 1.0
    0.8100000000D-02      0.1000000000D+01
 S   1 1.0
    0.2430000000D-01      0.1000000000D+01
 S   1 1.0
    0.7290000000D-01      0.1000000000D+01
 S   1 1.0
    0.2187000000D+00      0.1000000000D+01
 S   1 1.0
    0.6561000000D+00      0.1000000000D+01
 S   1 1.0
    0.1968300000D+01      0.1000000000D+01
 P   1 1.0
    0.1000000000D-03      0.1000000000D+01
 P   1 1.0
    0.3000000000D-03      0.1000000000D+01
 P   1 1.0
    0.9000000000D-03      0.1000000000D+01
 P   1 1.0
    0.2700000000D-02      0.1000000000D+01
 D   1 1.0
    0.1000000000D-03      0.1000000000D+01
 D   1 1.0
    0.3000000000D-03      0.1000000000D+01

    2 0
 S   1 1.0
    0.1000000000D-03      0.1000000000D+01
 S   1 1.0
    0.3000000000D-03      0.1000000000D+01
 S   1 1.0
    0.9000000000D-03      0.1000000000D+01
 S   1 1.0
    0.2700000000D-02      0.1000000000D+01
 S   1 1.0
    0.8100000000D-02      0.1000000000D+01
 S   1 1.0
    0.2430000000D-01      0.1000000000D+01
 S   1 1.0
    0.7290000000D-01      0.1000000000D+01
 S   1 1.0
    0.2187000000D+00      0.1000000000D+01
 S   1 1.0
    0.6561000000D+00      0.1000000000D+01
 S   1 1.0
    0.1968300000D+01      0.1000000000D+01
 P   1 1.0
    0.1000000000D-03      0.1000000000D+01
 P   1 1.0
    0.3000000000D-03      0.1000000000D+01
 P   1 1.0
    0.9000000000D-03      0.1000000000D+01
 P   1 1.0
    0.2700000000D-02      0.1000000000D+01
 D   1 1.0
    0.1000000000D-03      0.1000000000D+01
 D   1 1.0
    0.3000000000D-03      0.1000000000D+01


[MO]
 Ene=         -0.01684480
 Spin= Alpha
 Occup=        1.00000000
    1       -0.0010325300
    2        0.0028583300
    3       -0.0014273600
    4       -0.0458494900
    5       -0.1561044000
    6       -0.2906300500
    7       -0.2065157700
    8        0.1566721900
    9        0.0084563300
   10        0.0001850500
   11       -0.0000546400
   12        0.0000000000
   13        0.0000000000
   14        0.0002501700
   15        0.0000000000
   16       -0.0000000000
   17        0.0383442600
   18       -0.0000000000
   19       -0.0000000000
   20       -0.0400324200
   21       -0.0000000000
   22        0.0000000000
   23       -0.0004013000
   24        0.0004625900
   25        0.0004625900
   26        0.0000000000
   27       -0.0000000000
   28        0.0000000000
   29        0.0015940700
   30       -0.0008453600
   31       -0.0008453600
   32       -0.0000000000
   33        0.0000000000
   34       -0.0000000000
   35       -0.0010325300
   36        0.0028583300
   37       -0.0014273600
   38       -0.0458494900
   39       -0.1561044000
   40       -0.2906300500
   41       -0.2065157700
   42        0.1566721900
   43        0.0084563300
   44        0.0001850500
   45        0.0000546400
   46       -0.0000000000
   47        0.0000000000
   48       -0.0002501700
   49       -0.0000000000
   50       -0.0000000000
   51       -0.0383442600
   52        0.0000000000
   53        0.0000000000
   54        0.0400324200
   55        0.0000000000
   56       -0.0000000000
   57       -0.0004013000
   58        0.0004625900
   59        0.0004625900
   60       -0.0000000000
   61        0.0000000000
   62       -0.0000000000
   63        0.0015940700
   64       -0.0008453600
   65       -0.0008453600
   66        0.0000000000
   67       -0.0000000000
   68        0.0000000000
 Ene=          0.00220725
 Spin= Alpha
 Occup=        0.00000000
    1        0.1430696300
    2        0.3201585800
    3       -1.1215234100
    4        0.5593293800
    5       -0.1222301100
    6        0.1158704800
    7        0.0055580900
    8       -0.0151719200
    9       -0.0026533900
   10        0.0002377800
   11        0.0107268900
   12        0.0000000000
   13       -0.0000000000
   14        0.0473853500
   15        0.0000000000
   16       -0.0000000000
   17       -0.0209860500
   18        0.0000000000
   19        0.0000000000
   20       -0.0363036100
   21       -0.0000000000
   22       -0.0000000000
   23       -0.0196249300
   24       -0.0194452000
   25       -0.0194452000
   26        0.0000000000
   27        0.0000000000
   28        0.0000000000
   29       -0.0901283200
   30       -0.0966778600
   31       -0.0966778600
   32        0.0000000000
   33       -0.0000000000
   34       -0.0000000000
   35        0.1430696300
   36        0.3201585800
   37       -1.1215234100
   38        0.5593293800
   39       -0.1222301100
   40        0.1158704800
   41        0.0055580900
   42       -0.0151719200
   43       -0.0026533900
   44        0.0002377800
   45       -0.0107268900
   46       -0.0000000000
   47        0.0000000000
   48       -0.0473853500
   49       -0.0000000000
   50        0.0000000000
   51        0.0209860500
   52       -0.0000000000
   53        0.0000000000
   54        0.0363036100
   55        0.0000000000
   56        0.0000000000
   57       -0.0196249300
   58       -0.0194452000
   59       -0.0194452000
   60       -0.0000000000
   61       -0.0000000000
   62       -0.0000000000
   63       -0.0901283200
   64       -0.0966778600
   65       -0.0966778600
   66       -0.0000000000
   67        0.0000000000
   68        0.0000000000
 Ene=          0.00286140
 Spin= Alpha
 Occup=        0.00000000
    1       -0.0062157100
    2       -0.0119653600
    3       -0.1876881700
    4       -3.9339882400
    5        0.3279006400
    6        0.0313767900
    7        0.0409076800
    8       -0.0277373200
    9       -0.0004288200
   10       -0.0001868900
   11        0.1646654000
   12        0.0000000000
   13        0.0000000000
   14        0.1428145600
   15        0.0000000000
   16       -0.0000000000
   17       -0.7296835800
   18       -0.0000000000
   19        0.0000000000
   20       -0.6679280700
   21        0.0000000000
   22       -0.0000000000
   23        0.9196027200
   24        0.8913507100
   25        0.8913507100
   26        0.0000000000
   27        0.0000000000
   28        0.0000000000
   29        1.7416634800
   30        1.7716137100
   31        1.7716137100
   32        0.0000000000
   33       -0.0000000000
   34       -0.0000000000
   35        0.0062157100
   36        0.0119653600
   37        0.1876881700
   38        3.9339882400
   39       -0.3279006400
   40       -0.0313767900
   41       -0.0409076800
   42        0.0277373200
   43        0.0004288200
   44        0.0001868900
   45        0.1646654000
   46       -0.0000000000
   47       -0.0000000000
   48        0.1428145600
   49       -0.0000000000
   50        0.0000000000
   51       -0.7296835800
   52        0.0000000000
   53       -0.0000000000
   54       -0.6679280700
   55       -0.0000000000
   56        0.0000000000
   57       -0.9196027200
   58       -0.8913507100
   59       -0.8913507100
   60        0.0000000000
   61        0.0000000000
   62       -0.0000000000
   63       -1.7416634800
   64       -1.7716137100
   65       -1.7716137100
   66        0.0000000000
   67       -0.0000000000
   68        0.0000000000
 Ene=          0.00345013
 Spin= Alpha
 Occup=        0.00000000
    1        0.0000000000
    2       -0.0000000000
    3        0.0000000000
    4        0.0000000000
    5       -0.0000000000
    6        0.0000000000
    7       -0.0000000000
    8        0.0000000000
    9       -0.0000000000
   10        0.0000000000
   11        0.0000000000
   12       -0.0075171300
   13        0.0255870600
   14       -0.0000000000
   15        0.0334076900
   16       -0.1137142500
   17       -0.0000000000
   18       -0.1604803200
   19        0.5462485000
   20        0.0000000000
   21       -0.0035066700
   22        0.0119361100
   23        0.0000000000
   24        0.0000000000
   25        0.0000000000
   26       -0.0694202600
   27        0.2362950800
   28        0.0000000000
   29        0.0000000000
   30        0.0000000000
   31        0.0000000000
   32        0.0410086800
   33       -0.1395867800
   34       -0.0000000000
   35       -0.0000000000
   36        0.0000000000
   37       -0.0000000000
   38       -0.0000000000
   39        0.0000000000
   40       -0.0000000000
   41        0.0000000000
   42       -0.0000000000
   43        0.0000000000
   44       -0.0000000000
   45       -0.0000000000
   46       -0.0075171300
   47        0.0255870600
   48        0.0000000000
   49        0.0334076900
   50       -0.1137142500
   51        0.0000000000
   52       -0.1604803200
   53        0.5462485000
   54        0.0000000000
   55       -0.0035066700
   56        0.0119361100
   57       -0.0000000000
   58       -0.0000000000
   59       -0.0000000000
   60        0.0694202600
   61       -0.2362950800
   62       -0.0000000000
   63       -0.0000000000
   64       -0.0000000000
   65       -0.0000000000
   66       -0.0410086800
   67        0.1395867800
   68        0.0000000000
 Ene=          0.00345013
 Spin= Alpha
 Occup=        0.00000000
    1       -0.0000000000
    2        0.0000000000
    3       -0.0000000000
    4       -0.0000000000
    5        0.0000000000
    6       -0.0000000000
    7        0.0000000000
    8       -0.0000000000
    9        0.0000000000
   10        0.0000000000
   11       -0.0000000000
   12       -0.0255870600
   13       -0.0075171300
   14        0.0000000000
   15        0.1137142500
   16        0.0334076900
   17        0.0000000000
   18       -0.5462485000
   19       -0.1604803200
   20       -0.0000000000
   21       -0.0119361100
   22       -0.0035066700
   23       -0.0000000000
   24       -0.0000000000
   25       -0.0000000000
   26       -0.2362950800
   27       -0.0694202600
   28        0.0000000000
   29       -0.0000000000
   30       -0.0000000000
   31       -0.0000000000
   32        0.1395867800
   33        0.0410086800
   34       -0.0000000000
   35        0.0000000000
   36       -0.0000000000
   37        0.0000000000
   38        0.0000000000
   39       -0.0000000000
   40        0.0000000000
   41       -0.0000000000
   42       -0.0000000000
   43       -0.0000000000
   44       -0.0000000000
   45        0.0000000000
   46       -0.0255870600
   47       -0.0075171300
   48       -0.0000000000
   49        0.1137142500
   50        0.0334076900
   51       -0.0000000000
   52       -0.5462485000
   53       -0.1604803200
   54       -0.0000000000
   55       -0.0119361100
   56       -0.0035066700
   57        0.0000000000
   58        0.0000000000
   59        0.0000000000
   60        0.2362950800
   61        0.0694202600
   62       -0.0000000000
   63        0.0000000000
   64        0.0000000000
   65        0.0000000000
   66       -0.1395867800
   67       -0.0410086800
   68        0.0000000000
 Ene=          0.00665541
 Spin= Alpha
 Occup=        0.00000000
    1        0.0000000000
    2        0.0000000000
    3        0.0000000000
    4        0.0000000000
    5       -0.0000000000
    6       -0.0000000000
    7       -0.0000000000
    8        0.0000000000
    9        0.0000000000
   10        0.0000000000
   11        0.0000000000
   12        0.0006271700
   13       -0.0004708600
   14        0.0000000000
   15       -0.0016591800
   16        0.0012456600
   17        0.0000000000
   18        3.5342084800
   19       -2.6533676100
   20        0.0000000000
   21        0.6514386400
   22       -0.4890787300
   23        0.0000000000
   24        0.0000000000
   25        0.0000000000
   26       -0.0284236900
   27        0.0213395700
   28        0.0000000000
   29        0.0000000000
   30        0.0000000000
   31        0.0000000000
   32        0.0840852600
   33       -0.0631284500
   34       -0.0000000000
   35        0.0000000000
   36        0.0000000000
   37       -0.0000000000
   38       -0.0000000000
   39        0.0000000000
   40        0.0000000000
   41        0.0000000000
   42       -0.0000000000
   43       -0.0000000000
   44       -0.0000000000
   45        0.0000000000
   46       -0.0006271700
   47        0.0004708600
   48        0.0000000000
   49        0.0016591800
   50       -0.0012456600
   51       -0.0000000000
   52       -3.5342084800
   53        2.6533676100
   54        0.0000000000
   55       -0.6514386400
   56        0.4890787300
   57       -0.0000000000
   58       -0.0000000000
   59       -0.0000000000
   60       -0.0284236900
   61        0.0213395700
   62       -0.0000000000
   63       -0.0000000000
   64       -0.0000000000
   65       -0.0000000000
   66        0.0840852600
   67       -0.0631284500
   68        0.0000000000
 Ene=          0.00665541
 Spin= Alpha
 Occup=        0.00000000
    1       -0.0000000000
    2       -0.0000000000
    3        0.0000000000
    4        0.0000000000
    5       -0.0000000000
    6       -0.0000000000
    7       -0.0000000000
    8        0.0000000000
    9        0.0000000000
   10       -0.0000000000
   11       -0.0000000000
   12        0.0004708600
   13        0.0006271700
   14        0.0000000000
   15       -0.0012456600
   16       -0.0016591800
   17       -0.0000000000
   18        2.6533676100
   19        3.5342084800
   20        0.0000000000
   21        0.4890787300
   22        0.6514386400
   23        0.0000000000
   24        0.0000000000
   25        0.0000000000
   26       -0.0213395700
   27       -0.0284236900
   28       -0.0000000000
   29        0.0000000000
   30        0.0000000000
   31        0.0000000000
   32        0.0631284500
   33        0.0840852600
   34        0.0000000000
   35       -0.0000000000
   36       -0.0000000000
   37       -0.0000000000
   38       -0.0000000000
   39        0.0000000000
   40        0.0000000000
   41        0.0000000000
   42       -0.0000000000
   43       -0.0000000000
   44       -0.0000000000
   45        0.0000000000
   46       -0.0004708600
   47       -0.0006271700
   48        0.0000000000
   49        0.0012456600
   50        0.0016591800
   51        0.0000000000
   52       -2.6533676100
   53       -3.5342084800
   54        0.0000000000
   55       -0.4890787300
   56       -0.6514386400
   57       -0.0000000000
   58       -0.0000000000
   59       -0.0000000000
   60       -0.0213395700
   61       -0.0284236900
   62        0.0000000000
   63       -0.0000000000
   64       -0.0000000000
   65       -0.0000000000
   66        0.0631284500
   67        0.0840852600
   68       -0.0000000000
 Ene=          0.00669184
 Spin= Alpha
 Occup=        0.00000000
    1       -0.2632228400
    2       -0.5362053100
    3        0.4805953700
    4        0.5038365000
    5       -0.0014684000
    6       -0.0037420200
    7       -0.0033571200
    8        0.0022977700
    9       -0.0000727600
   10        0.0000330200
   11       -0.0212016700
   12        0.0000000000
   13       -0.0000000000
   14       -0.0763032200
   15       -0.0000000000
   16        0.0000000000
   17       -3.6905156500
   18       -0.0000000000
   19       -0.0000000000
   20       -0.7526261500
   21       -0.0000000000
   22       -0.0000000000
   23        0.0701424200
   24        0.0205213700
   25        0.0205213700
   26        0.0000000000
   27        0.0000000000
   28        0.0000000000
   29        0.0560765100
   30        0.2145390400
   31        0.2145390400
   32       -0.0000000000
   33       -0.0000000000
   34        0.0000000000
   35       -0.2632228400
   36       -0.5362053100
   37        0.4805953700
   38        0.5038365000
   39       -0.0014684000
   40       -0.0037420200
   41       -0.0033571200
   42        0.0022977700
   43       -0.0000727600
   44        0.0000330200
   45        0.0212016700
   46       -0.0000000000
   47        0.0000000000
   48        0.0763032200
   49        0.0000000000
   50       -0.0000000000
   51        3.6905156500
   52        0.0000000000
   53        0.0000000000
   54        0.7526261500
   55        0.0000000000
   56        0.0000000000
   57        0.0701424300
   58        0.0205213700
   59        0.0205213700
   60        0.0000000000
   61        0.0000000000
   62       -0.0000000000
   63        0.0560765100
   64        0.2145390400
   65        0.2145390400
   66       -0.0000000000
   67       -0.0000000000
   68       -0.0000000000
 Ene=          0.00686654
 Spin= Alpha
 Occup=        0.00000000
    1        0.0062356600
    2        0.0128810100
    3        0.0843340800
    4        2.9292803900
    5        0.1966565500
    6        0.1999245600
    7        0.0622149300
    8       -0.0549461900
    9       -0.0034030300
   10       -0.0000102600
   11       -0.1651956000
   12       -0.0000000000
   13       -0.0000000000
   14       -0.1570507600
   15       -0.0000000000
   16        0.0000000000
   17        0.8231731600
   18        0.0000000000
   19        0.0000000000
   20       -0.1300656900
   21        0.0000000000
   22        0.0000000000
   23       -0.9223583600
   24       -0.8919665400
   25       -0.8919665400
   26       -0.0000000000
   27       -0.0000000000
   28       -0.0000000000
   29       -1.7825573200
   30       -1.8148947600
   31       -1.8148947600
   32       -0.0000000000
   33        0.0000000000
   34        0.0000000000
   35       -0.0062356600
   36       -0.0128810100
   37       -0.0843340800
   38       -2.9292803900
   39       -0.1966565500
   40       -0.1999245600
   41       -0.0622149300
   42        0.0549461900
   43        0.0034030300
   44        0.0000102600
   45       -0.1651956000
   46        0.0000000000
   47        0.0000000000
   48       -0.1570507600
   49        0.0000000000
   50       -0.0000000000
   51        0.8231731600
   52       -0.0000000000
   53       -0.0000000000
   54       -0.1300656900
   55       -0.0000000000
   56       -0.0000000000
   57        0.9223583600
   58        0.8919665400
   59        0.8919665400
   60       -0.0000000000
   61       -0.0000000000
   62        0.0000000000
   63        1.7825573200
   64        1.8148947600
   65        1.8148947600
   66       -0.0000000000
   67        0.0000000000
   68       -0.0000000000
 Ene=          0.00885492
 Spin= Alpha
 Occup=        0.00000000
    1       -0.0000000000
    2       -0.0000000000
    3       -0.0000000000
    4       -0.0000000000
    5        0.0000000000
    6       -0.0000000000
    7        0.0000000000
    8       -0.0000000000
    9        0.0000000000
   10       -0.0000000000
   11       -0.0000000000
   12       -0.0109108800
   13        0.0224080800
   14        0.0000000000
   15        0.0492743600
   16       -0.1011965600
   17       -0.0000000000
   18       -0.2753156900
   19        0.5654259300
   20       -0.0000000000
   21        0.3275910400
   22       -0.6727857300
   23       -0.0000000000
   24       -0.0000000000
   25       -0.0000000000
   26       -0.0942835300
   27        0.1936335500
   28       -0.0000000000
   29       -0.0000000000
   30       -0.0000000000
   31       -0.0000000000
   32        0.0539608900
   33       -0.1108214500
   34        0.0000000000
   35       -0.0000000000
   36        0.0000000000
   37        0.0000000000
   38        0.0000000000
   39       -0.0000000000
   40        0.0000000000
   41       -0.0000000000
   42        0.0000000000
   43       -0.0000000000
   44        0.0000000000
   45       -0.0000000000
   46       -0.0109108800
   47        0.0224080800
   48       -0.0000000000
   49        0.0492743600
   50       -0.1011965600
   51       -0.0000000000
   52       -0.2753156900
   53        0.5654259300
   54       -0.0000000000
   55        0.3275910400
   56       -0.6727857300
   57        0.0000000000
   58        0.0000000000
   59        0.0000000000
   60        0.0942835300
   61       -0.1936335500
   62        0.0000000000
   63        0.0000000000
   64        0.0000000000
   65        0.0000000000
   66       -0.0539608900
   67        0.1108214500
   68       -0.0000000000
 Ene=          0.00885492
 Spin= Alpha
 Occup=        0.00000000
    1       -0.0000000000
    2        0.0000000000
    3        0.0000000000
    4        0.0000000000
    5       -0.0000000000
    6        0.0000000000
    7       -0.0000000000
    8        0.0000000000
    9       -0.0000000000
   10        0.0000000000
   11        0.0000000000
   12       -0.0224080800
   13       -0.0109108800
   14        0.0000000000
   15        0.1011965600
   16        0.0492743600
   17        0.0000000000
   18       -0.5654259300
   19       -0.2753156900
   20        0.0000000000
   21        0.6727857300
   22        0.3275910400
   23        0.0000000000
   24        0.0000000000
   25        0.0000000000
   26       -0.1936335500
   27       -0.0942835300
   28       -0.0000000000
   29        0.0000000000
   30        0.0000000000
   31        0.0000000000
   32        0.1108214500
   33        0.0539608900
   34        0.0000000000
   35        0.0000000000
   36       -0.0000000000
   37       -0.0000000000
   38       -0.0000000000
   39        0.0000000000
   40       -0.0000000000
   41        0.0000000000
   42       -0.0000000000
   43        0.0000000000
   44        0.0000000000
   45        0.0000000000
   46       -0.0224080800
   47       -0.0109108800
   48       -0.0000000000
   49        0.1011965600
   50        0.0492743600
   51        0.0000000000
   52       -0.5654259300
   53       -0.2753156900
   54        0.0000000000
   55        0.6727857300
   56        0.3275910400
   57       -0.0000000000
   58       -0.0000000000
   59       -0.0000000000
   60        0.1936335500
   61        0.0942835300
   62        0.0000000000
   63       -0.0000000000
   64       -0.0000000000
   65       -0.0000000000
   66       -0.1108214500
   67       -0.0539608900
   68       -0.0000000000
 Ene=          0.00925300
 Spin= Alpha
 Occup=        0.00000000
    1        0.0943313200
    2       -0.1506783200
    3        0.8949604200
    4       -1.5008511700
    5        0.7169401100
    6       -0.0306970000
    7        0.1107628700
    8       -0.0621644200
    9        0.0003000200
   10       -0.0006116000
   11        0.0070755800
   12       -0.0000000000
   13       -0.0000000000
   14       -0.0154320700
   15       -0.0000000000
   16        0.0000000000
   17       -0.6959488700
   18        0.0000000000
   19       -0.0000000000
   20        0.3117808400
   21        0.0000000000
   22        0.0000000000
   23       -0.0074763800
   24       -0.0197580500
   25       -0.0197580500
   26       -0.0000000000
   27        0.0000000000
   28        0.0000000000
   29       -0.0339709900
   30        0.0009537800
   31        0.0009537800
   32        0.0000000000
   33        0.0000000000
   34        0.0000000000
   35        0.0943313200
   36       -0.1506783200
   37        0.8949604200
   38       -1.5008511800
   39        0.7169401100
   40       -0.0306970000
   41        0.1107628700
   42       -0.0621644200
   43        0.0003000200
   44       -0.0006116000
   45       -0.0070755800
   46        0.0000000000
   47        0.0000000000
   48        0.0154320700
   49        0.0000000000
   50       -0.0000000000
   51        0.6959488700
   52       -0.0000000000
   53        0.0000000000
   54       -0.3117808400
   55        0.0000000000
   56       -0.0000000000
   57       -0.0074763800
   58       -0.0197580500
   59       -0.0197580500
   60        0.0000000000
   61       -0.0000000000
   62        0.0000000000
   63       -0.0339709900
   64        0.0009537800
   65        0.0009537800
   66       -0.0000000000
   67       -0.0000000000
   68       -0.0000000000
 Ene=          0.01309310
 Spin= Alpha
 Occup=        0.00000000
    1        0.0069594500
    2        0.0134149600
    3      -12.3791406700
    4     -149.6180441400
    5        0.6691999500
    6       -0.1797223500
    7        0.0055215800
    8        0.0110936100
    9        0.0029642800
   10       -0.0003178200
   11       -0.1814283100
   12        0.0000000000
   13        0.0000000000
   14       -0.1788395200
   15        0.0000000000
   16       -0.0000000000
   17       -0.3500001500
   18       -0.0000000000
   19       -0.0000000000
   20      -27.7218623600
   21        0.0000000000
   22        0.0000000000
   23       -1.1614516300
   24       -0.8958148600
   25       -0.8958148600
   26        0.0000000000
   27        0.0000000000
   28        0.0000000000
   29       -1.8799805000
   30       -2.1776832500
   31       -2.1776832500
   32        0.0000000000
   33       -0.0000000000
   34       -0.0000000000
   35       -0.0069594500
   36       -0.0134149600
   37       12.3791406700
   38      149.6180441400
   39       -0.6691999500
   40        0.1797223500
   41       -0.0055215800
   42       -0.0110936100
   43       -0.0029642800
   44        0.0003178200
   45       -0.1814283100
   46       -0.0000000000
   47       -0.0000000000
   48       -0.1788395200
   49       -0.0000000000
   50        0.0000000000
   51       -0.3500001500
   52        0.0000000000
   53        0.0000000000
   54      -27.7218623600
   55       -0.0000000000
   56       -0.0000000000
   57        1.1614516300
   58        0.8958148600
   59        0.8958148600
   60        0.0000000000
   61        0.0000000000
   62       -0.0000000000
   63        1.8799805000
   64        2.1776832500
   65        2.1776832500
   66        0.0000000000
   67       -0.0000000000
   68        0.0000000000
 Ene=          0.01452370
 Spin= Alpha
 Occup=        0.00000000
    1        0.0000000000
    2        0.0000000000
    3        0.0000000000
    4        0.0000000000
    5        0.0000000000
    6        0.0000000000
    7        0.0000000000
    8       -0.0000000000
    9       -0.0000000000
   10       -0.0000000000
   11        0.0000000000
   12       -0.0005336200
   13        0.0002950400
   14        0.0000000000
   15        0.0004305600
   16       -0.0002380600
   17        0.0000000000
   18       -4.9386942900
   19        2.7306192300
   20        0.0000000000
   21        3.1873721500
   22       -1.7623078400
   23        0.0000000000
   24        0.0000000000
   25        0.0000000000
   26        0.0319344000
   27       -0.0176566300
   28       -0.0000000000
   29        0.0000000000
   30        0.0000000000
   31        0.0000000000
   32       -0.0965478300
   33        0.0533815900
   34       -0.0000000000
   35        0.0000000000
   36        0.0000000000
   37       -0.0000000000
   38       -0.0000000000
   39        0.0000000000
   40       -0.0000000000
   41        0.0000000000
   42        0.0000000000
   43        0.0000000000
   44       -0.0000000000
   45        0.0000000000
   46        0.0005336200
   47       -0.0002950400
   48        0.0000000000
   49       -0.0004305600
   50        0.0002380600
   51       -0.0000000000
   52        4.9386942900
   53       -2.7306192300
   54        0.0000000000
   55       -3.1873721500
   56        1.7623078400
   57       -0.0000000000
   58       -0.0000000000
   59       -0.0000000000
   60        0.0319344000
   61       -0.0176566300
   62        0.0000000000
   63       -0.0000000000
   64       -0.0000000000
   65       -0.0000000000
   66       -0.0965478300
   67        0.0533815900
   68        0.0000000000
 Ene=          0.01452370
 Spin= Alpha
 Occup=        0.00000000
    1       -0.0000000000
    2       -0.0000000000
    3        0.0000000000
    4        0.0000000000
    5       -0.0000000000
    6        0.0000000000
    7        0.0000000000
    8       -0.0000000000
    9       -0.0000000000
   10        0.0000000000
   11        0.0000000000
   12       -0.0002950400
   13       -0.0005336200
   14        0.0000000000
   15        0.0002380600
   16        0.0004305600
   17        0.0000000000
   18       -2.7306192300
   19       -4.9386942900
   20        0.0000000000
   21        1.7623078400
   22        3.1873721500
   23        0.0000000000
   24        0.0000000000
   25        0.0000000000
   26        0.0176566300
   27        0.0319344000
   28       -0.0000000000
   29        0.0000000000
   30        0.0000000000
   31        0.0000000000
   32       -0.0533815900
   33       -0.0965478300
   34        0.0000000000
   35       -0.0000000000
   36       -0.0000000000
   37       -0.0000000000
   38       -0.0000000000
   39        0.0000000000
   40       -0.0000000000
   41       -0.0000000000
   42        0.0000000000
   43        0.0000000000
   44       -0.0000000000
   45        0.0000000000
   46        0.0002950400
   47        0.0005336200
   48        0.0000000000
   49       -0.0002380600
   50       -0.0004305600
   51        0.0000000000
   52        2.7306192300
   53        4.9386942900
   54        0.0000000000
   55       -1.7623078400
   56       -3.1873721500
   57       -0.0000000000
   58       -0.0000000000
   59       -0.0000000000
   60        0.0176566300
   61        0.0319344000
   62        0.0000000000
   63       -0.0000000000
   64       -0.0000000000
   65       -0.0000000000
   66       -0.0533815900
   67       -0.0965478300
   68       -0.0000000000
 Ene=          0.01485850
 Spin= Alpha
 Occup=        0.00000000
    1       -0.5124178600
    2       -0.9066021000
    3        1.3257271300
    4       -0.0129241600
    5       -0.6329266000
    6        0.1177200100
    7       -0.0605894500
    8        0.0243876800
    9       -0.0017975200
   10        0.0004721900
   11       -0.0397011600
   12        0.0000000000
   13       -0.0000000000
   14       -0.1367132600
   15       -0.0000000000
   16        0.0000000000