 Molden2AIM, Version 3.1.0 (02/25/2015)           Time: Thu Oct 17 19:55:42 2024
GAUSSIAN             68 MOL ORBITALS     68 PRIMITIVES        2 NUCLEI
  Be   1    (CENTRE  1)   0.00000000  0.00000000  0.00000000  CHARGE =  4.0
  Be   2    (CENTRE  2)  49.60000000  0.00000000  0.00000000  CHARGE =  4.0
CENTRE ASSIGNMENTS    1  1  1  1  1  1  1  1  1  1  1  1  1  1  1  1  1  1  1  1
CENTRE ASSIGNMENTS    1  1  1  1  1  1  1  1  1  1  1  1  1  1  2  2  2  2  2  2
CENTRE ASSIGNMENTS    2  2  2  2  2  2  2  2  2  2  2  2  2  2  2  2  2  2  2  2
CENTRE ASSIGNMENTS    2  2  2  2  2  2  2  2
TYPE ASSIGNMENTS      1  1  1  1  1  1  1  1  1  1  2  3  4  2  3  4  2  3  4  2
TYPE ASSIGNMENTS      3  4  5  6  7  8  9 10  5  6  7  8  9 10  1  1  1  1  1  1
TYPE ASSIGNMENTS      1  1  1  1  2  3  4  2  3  4  2  3  4  2  3  4  5  6  7  8
TYPE ASSIGNMENTS      9 10  5  6  7  8  9 10
EXPONENTS  0.1000000D-03 0.3000000D-03 0.9000000D-03 0.2700000D-02 0.8100000D-02
EXPONENTS  0.2430000D-01 0.7290000D-01 0.2187000D+00 0.6561000D+00 0.1968300D+01
EXPONENTS  0.1000000D-03 0.1000000D-03 0.1000000D-03 0.3000000D-03 0.3000000D-03
EXPONENTS  0.3000000D-03 0.9000000D-03 0.9000000D-03 0.9000000D-03 0.2700000D-02
EXPONENTS  0.2700000D-02 0.2700000D-02 0.1000000D-03 0.1000000D-03 0.1000000D-03
EXPONENTS  0.1000000D-03 0.1000000D-03 0.1000000D-03 0.3000000D-03 0.3000000D-03
EXPONENTS  0.3000000D-03 0.3000000D-03 0.3000000D-03 0.3000000D-03 0.1000000D-03
EXPONENTS  0.3000000D-03 0.9000000D-03 0.2700000D-02 0.8100000D-02 0.2430000D-01
EXPONENTS  0.7290000D-01 0.2187000D+00 0.6561000D+00 0.1968300D+01 0.1000000D-03
EXPONENTS  0.1000000D-03 0.1000000D-03 0.3000000D-03 0.3000000D-03 0.3000000D-03
EXPONENTS  0.9000000D-03 0.9000000D-03 0.9000000D-03 0.2700000D-02 0.2700000D-02
EXPONENTS  0.2700000D-02 0.1000000D-03 0.1000000D-03 0.1000000D-03 0.1000000D-03
EXPONENTS  0.1000000D-03 0.1000000D-03 0.3000000D-03 0.3000000D-03 0.3000000D-03
EXPONENTS  0.3000000D-03 0.3000000D-03 0.3000000D-03
MO    1     MO 0.0        OCC NO =    1.0000000  ORB. ENERGY =    0.000097
  0.45566439D-04  0.13265587D-03 -0.58582774D-03 -0.18724754D-02 -0.41456221D-02
 -0.77072564D-02 -0.10434904D-01  0.19418113D-01  0.30990488D-02 -0.12151389D-03
 -0.40967294D-06 -0.00000000D+00 -0.00000000D+00 -0.91480521D-07  0.00000000D+00
  0.00000000D+00 -0.35468274D-05 -0.00000000D+00 -0.00000000D+00 -0.16219831D-03
  0.00000000D+00  0.00000000D+00 -0.29128109D-08 -0.12264775D-08 -0.12264775D-08
 -0.00000000D+00 -0.00000000D+00  0.00000000D+00 -0.43247184D-07 -0.30442624D-07
 -0.30442624D-07  0.00000000D+00 -0.00000000D+00 -0.00000000D+00  0.45566439D-04
  0.13265587D-03 -0.58582774D-03 -0.18724754D-02 -0.41456221D-02 -0.77072564D-02
 -0.10434904D-01  0.19418113D-01  0.30990488D-02 -0.12151389D-03  0.40967294D-06
  0.00000000D+00  0.00000000D+00  0.91480521D-07 -0.00000000D+00 -0.00000000D+00
  0.35468274D-05  0.00000000D+00 -0.00000000D+00  0.16219831D-03 -0.00000000D+00
  0.00000000D+00 -0.29128109D-08 -0.12264775D-08 -0.12264775D-08 -0.00000000D+00
  0.00000000D+00 -0.00000000D+00 -0.43247184D-07 -0.30442624D-07 -0.30442624D-07
  0.00000000D+00  0.00000000D+00  0.00000000D+00
MO    2     MO 0.0        OCC NO =    0.0000000  ORB. ENERGY =    0.000533
 -0.15288993D-04  0.22968523D-02 -0.28926200D-04  0.27338400D-02  0.42382256D-02
  0.89714785D-02  0.11253333D-01 -0.21308076D-01 -0.35551050D-02  0.18328937D-03
  0.29776792D-06  0.00000000D+00  0.00000000D+00  0.41298015D-04 -0.00000000D+00
 -0.00000000D+00 -0.22740438D-04  0.00000000D+00  0.00000000D+00  0.18391296D-03
 -0.00000000D+00 -0.00000000D+00  0.30936106D-08  0.27768018D-08  0.27768018D-08
  0.00000000D+00  0.00000000D+00 -0.00000000D+00  0.25928257D-06  0.50132991D-07
  0.50132991D-07 -0.00000000D+00 -0.00000000D+00  0.00000000D+00  0.15288993D-04
 -0.22968523D-02  0.28926200D-04 -0.27338400D-02 -0.42382256D-02 -0.89714785D-02
 -0.11253333D-01  0.21308076D-01  0.35551050D-02 -0.18328937D-03  0.29776792D-06
 -0.00000000D+00 -0.00000000D+00  0.41298015D-04  0.00000000D+00  0.00000000D+00
 -0.22740438D-04  0.00000000D+00 -0.00000000D+00  0.18391296D-03 -0.00000000D+00
  0.00000000D+00 -0.30936106D-08 -0.27768018D-08 -0.27768018D-08  0.00000000D+00
  0.00000000D+00  0.00000000D+00 -0.25928257D-06 -0.50132991D-07 -0.50132991D-07
 -0.00000000D+00 -0.00000000D+00 -0.00000000D+00
MO    3     MO 0.0        OCC NO =    0.0000000  ORB. ENERGY =    0.005298
  0.43810752D-03  0.26434459D-03 -0.34552104D-02  0.48099190D-02  0.20281849D-02
  0.66126357D-02  0.58993127D-02 -0.12175678D-01 -0.24463279D-02  0.23579143D-03
 -0.11926393D-04 -0.00000000D+00 -0.00000000D+00  0.16188696D-04  0.00000000D+00
  0.00000000D+00 -0.10756173D-03 -0.00000000D+00 -0.00000000D+00  0.72052982D-04
  0.00000000D+00 -0.00000000D+00 -0.64219651D-07 -0.48568103D-08 -0.48568103D-08
 -0.00000000D+00 -0.00000000D+00 -0.00000000D+00 -0.20455754D-07 -0.10842305D-06
 -0.10842305D-06  0.00000000D+00  0.00000000D+00  0.00000000D+00  0.43810752D-03
  0.26434459D-03 -0.34552104D-02  0.48099190D-02  0.20281849D-02  0.66126357D-02
  0.58993127D-02 -0.12175678D-01 -0.24463279D-02  0.23579143D-03  0.11926393D-04
  0.00000000D+00  0.00000000D+00 -0.16188696D-04 -0.00000000D+00 -0.00000000D+00
  0.10756173D-03  0.00000000D+00  0.00000000D+00 -0.72052982D-04 -0.00000000D+00
 -0.00000000D+00 -0.64219651D-07 -0.48568103D-08 -0.48568103D-08 -0.00000000D+00
 -0.00000000D+00  0.00000000D+00 -0.20455754D-07 -0.10842305D-06 -0.10842305D-06
  0.00000000D+00  0.00000000D+00 -0.00000000D+00
MO    4     MO 0.0        OCC NO =    0.0000000  ORB. ENERGY =    0.011427
  0.15693860D-04 -0.74853310D-02  0.36888114D-02  0.27236099D-02 -0.11493493D-01
 -0.30695833D-02 -0.97047899D-02  0.15697899D-01  0.16421805D-02  0.19589081D-03
  0.13634215D-05 -0.00000000D+00 -0.00000000D+00 -0.12275602D-03  0.00000000D+00
  0.00000000D+00  0.68779945D-04 -0.00000000D+00 -0.00000000D+00  0.40089266D-03
  0.00000000D+00 -0.00000000D+00  0.13892665D-07  0.10792477D-07  0.10792477D-07
 -0.00000000D+00 -0.00000000D+00 -0.00000000D+00 -0.48503547D-06  0.13827190D-06
  0.13827190D-06  0.00000000D+00  0.00000000D+00  0.00000000D+00 -0.15693860D-04
  0.74853310D-02 -0.36888114D-02 -0.27236099D-02  0.11493493D-01  0.30695833D-02
  0.97047899D-02 -0.15697899D-01 -0.16421805D-02 -0.19589081D-03  0.13634215D-05
  0.00000000D+00  0.00000000D+00 -0.12275602D-03 -0.00000000D+00 -0.00000000D+00
  0.68779945D-04  0.00000000D+00 -0.00000000D+00  0.40089266D-03 -0.00000000D+00
 -0.00000000D+00 -0.13892665D-07 -0.10792477D-07 -0.10792477D-07 -0.00000000D+00
 -0.00000000D+00  0.00000000D+00  0.48503547D-06 -0.13827190D-06 -0.13827190D-06
  0.00000000D+00  0.00000000D+00 -0.00000000D+00
MO    5     MO 0.0        OCC NO =    0.0000000  ORB. ENERGY =    0.011812
  0.00000000D+00  0.00000000D+00 -0.00000000D+00  0.00000000D+00 -0.00000000D+00
  0.00000000D+00 -0.00000000D+00  0.00000000D+00  0.00000000D+00  0.00000000D+00
 -0.00000000D+00  0.64035061D-06 -0.18836278D-06  0.00000000D+00 -0.67767296D-05
  0.19934137D-05 -0.00000000D+00  0.90324003D-04 -0.26569323D-04  0.00000000D+00
  0.27301790D-03 -0.80309776D-04 -0.00000000D+00  0.00000000D+00  0.00000000D+00
 -0.12570753D-07  0.36977583D-08  0.00000000D+00  0.00000000D+00 -0.00000000D+00
 -0.00000000D+00  0.15311620D-06 -0.45040002D-07 -0.00000000D+00  0.00000000D+00
 -0.00000000D+00 -0.00000000D+00  0.00000000D+00 -0.00000000D+00  0.00000000D+00
 -0.00000000D+00  0.00000000D+00 -0.00000000D+00  0.00000000D+00  0.00000000D+00
  0.64035061D-06 -0.18836278D-06  0.00000000D+00 -0.67767296D-05  0.19934137D-05
 -0.00000000D+00  0.90324003D-04 -0.26569323D-04 -0.00000000D+00  0.27301790D-03
 -0.80309776D-04 -0.00000000D+00 -0.00000000D+00 -0.00000000D+00  0.12570753D-07
 -0.36977583D-08 -0.00000000D+00 -0.00000000D+00 -0.00000000D+00 -0.00000000D+00
 -0.15311620D-06  0.45040002D-07  0.00000000D+00
MO    6     MO 0.0        OCC NO =    0.0000000  ORB. ENERGY =    0.011812
  0.00000000D+00 -0.00000000D+00  0.00000000D+00 -0.00000000D+00  0.00000000D+00
  0.00000000D+00  0.00000000D+00 -0.00000000D+00 -0.00000000D+00  0.00000000D+00
 -0.00000000D+00 -0.18836278D-06 -0.64035061D-06 -0.00000000D+00  0.19934137D-05
  0.67767296D-05  0.00000000D+00 -0.26569323D-04 -0.90324003D-04 -0.00000000D+00
 -0.80309776D-04 -0.27301790D-03 -0.00000000D+00 -0.00000000D+00 -0.00000000D+00
  0.36977583D-08  0.12570753D-07 -0.00000000D+00 -0.00000000D+00 -0.00000000D+00
 -0.00000000D+00 -0.45040002D-07 -0.15311620D-06 -0.00000000D+00  0.00000000D+00
  0.00000000D+00 -0.00000000D+00  0.00000000D+00 -0.00000000D+00 -0.00000000D+00
 -0.00000000D+00 -0.00000000D+00  0.00000000D+00  0.00000000D+00  0.00000000D+00
 -0.18836278D-06 -0.64035061D-06 -0.00000000D+00  0.19934137D-05  0.67767296D-05
 -0.00000000D+00 -0.26569323D-04 -0.90324003D-04 -0.00000000D+00 -0.80309776D-04
 -0.27301790D-03 -0.00000000D+00  0.00000000D+00  0.00000000D+00 -0.36977583D-08
 -0.12570753D-07 -0.00000000D+00  0.00000000D+00 -0.00000000D+00 -0.00000000D+00
  0.45040002D-07  0.15311620D-06  0.00000000D+00
MO    7     MO 0.0        OCC NO =    0.0000000  ORB. ENERGY =    0.012676
 -0.14869160D-04 -0.51028780D-03 -0.14183773D-02  0.11639290D-01 -0.15962351D-01
  0.16984200D-02 -0.10201184D-01  0.13859381D-01  0.27228701D-03  0.55667810D-03
 -0.11356384D-04 -0.00000000D+00 -0.00000000D+00  0.11333868D-04  0.00000000D+00
  0.00000000D+00 -0.14355482D-03 -0.00000000D+00 -0.00000000D+00  0.72093160D-03
 -0.00000000D+00 -0.00000000D+00 -0.46517009D-07  0.98721082D-08  0.98721082D-08
 -0.00000000D+00 -0.00000000D+00 -0.00000000D+00  0.23130188D-06  0.21982515D-06
  0.21982515D-06 -0.00000000D+00  0.00000000D+00  0.00000000D+00 -0.14869160D-04
 -0.51028780D-03 -0.14183773D-02  0.11639290D-01 -0.15962351D-01  0.16984200D-02
 -0.10201184D-01  0.13859381D-01  0.27228701D-03  0.55667810D-03  0.11356384D-04
  0.00000000D+00  0.00000000D+00 -0.11333868D-04 -0.00000000D+00 -0.00000000D+00
  0.14355482D-03  0.00000000D+00 -0.00000000D+00 -0.72093160D-03 -0.00000000D+00
 -0.00000000D+00 -0.46517009D-07  0.98721082D-08  0.98721082D-08 -0.00000000D+00
 -0.00000000D+00 -0.00000000D+00  0.23130188D-06  0.21982515D-06  0.21982515D-06
 -0.00000000D+00  0.00000000D+00  0.00000000D+00
MO    8     MO 0.0        OCC NO =    0.0000000  ORB. ENERGY =    0.014038
  0.00000000D+00 -0.00000000D+00  0.00000000D+00 -0.00000000D+00  0.00000000D+00
 -0.00000000D+00  0.00000000D+00 -0.00000000D+00  0.00000000D+00 -0.00000000D+00
 -0.00000000D+00 -0.10953426D-05  0.11069599D-07 -0.00000000D+00  0.46325151D-05
 -0.46816303D-07  0.00000000D+00 -0.29369895D-06  0.29685863D-08 -0.00000000D+00
  0.63135990D-03 -0.63805363D-05 -0.00000000D+00 -0.00000000D+00 -0.00000000D+00
 -0.69077866D-08  0.69810926D-10 -0.00000000D+00 -0.00000000D+00 -0.00000000D+00
 -0.00000000D+00  0.88725054D-07 -0.89665220D-09  0.00000000D+00 -0.00000000D+00
  0.00000000D+00 -0.00000000D+00  0.00000000D+00 -0.00000000D+00  0.00000000D+00
 -0.00000000D+00  0.00000000D+00 -0.00000000D+00  0.00000000D+00  0.00000000D+00
  0.10953426D-05 -0.11069599D-07 -0.00000000D+00 -0.46325151D-05  0.46816303D-07
  0.00000000D+00  0.29369895D-06 -0.29685863D-08 -0.00000000D+00 -0.63135990D-03
  0.63805363D-05 -0.00000000D+00  0.00000000D+00  0.00000000D+00 -0.69077866D-08
  0.69810926D-10  0.00000000D+00  0.00000000D+00  0.00000000D+00  0.00000000D+00
  0.88725054D-07 -0.89665220D-09 -0.00000000D+00
MO    9     MO 0.0        OCC NO =    0.0000000  ORB. ENERGY =    0.014038
  0.00000000D+00 -0.00000000D+00  0.00000000D+00 -0.00000000D+00  0.00000000D+00
  0.00000000D+00  0.00000000D+00 -0.00000000D+00 -0.00000000D+00  0.00000000D+00
 -0.00000000D+00 -0.11069599D-07 -0.10953426D-05 -0.00000000D+00  0.46816303D-07
  0.46325151D-05  0.00000000D+00 -0.29685863D-08 -0.29369895D-06 -0.00000000D+00
  0.63805363D-05  0.63135990D-03 -0.00000000D+00 -0.00000000D+00 -0.00000000D+00
 -0.69810926D-10 -0.69077866D-08  0.00000000D+00 -0.00000000D+00 -0.00000000D+00
 -0.00000000D+00  0.89665220D-09  0.88725054D-07  0.00000000D+00 -0.00000000D+00
  0.00000000D+00 -0.00000000D+00  0.00000000D+00 -0.00000000D+00  0.00000000D+00
 -0.00000000D+00  0.00000000D+00 -0.00000000D+00  0.00000000D+00 -0.00000000D+00
  0.11069599D-07  0.10953426D-05 -0.00000000D+00 -0.46816303D-07 -0.46325151D-05
  0.00000000D+00  0.29685863D-08  0.29369895D-06 -0.00000000D+00 -0.63805363D-05
 -0.63135990D-03  0.00000000D+00  0.00000000D+00  0.00000000D+00 -0.69810926D-10
 -0.69077866D-08  0.00000000D+00  0.00000000D+00  0.00000000D+00  0.00000000D+00
  0.89665220D-09  0.88725054D-07 -0.00000000D+00
MO   10     MO 0.0        OCC NO =    0.0000000  ORB. ENERGY =    0.017967
  0.12786294D-03 -0.27924713D-01  0.10123673D-01 -0.13679973D-01  0.10594353D-01
 -0.22966388D-02  0.48834723D-02 -0.58859353D-02  0.25161882D-03 -0.35657102D-03
  0.40188407D-06 -0.00000000D+00 -0.00000000D+00 -0.48223579D-03  0.00000000D+00
  0.00000000D+00  0.36528443D-03 -0.00000000D+00  0.00000000D+00 -0.61599608D-03
  0.00000000D+00 -0.00000000D+00  0.13443305D-08  0.13764309D-08  0.13764309D-08
 -0.00000000D+00 -0.00000000D+00  0.00000000D+00 -0.25142674D-05 -0.11133192D-06
 -0.11133192D-06  0.00000000D+00  0.00000000D+00 -0.00000000D+00 -0.12786294D-03
  0.27924713D-01 -0.10123673D-01  0.13679973D-01 -0.10594353D-01  0.22966388D-02
 -0.48834723D-02  0.58859353D-02 -0.25161882D-03  0.35657102D-03  0.40188407D-06
  0.00000000D+00  0.00000000D+00 -0.48223579D-03 -0.00000000D+00 -0.00000000D+00
  0.36528443D-03  0.00000000D+00  0.00000000D+00 -0.61599608D-03  0.00000000D+00
 -0.00000000D+00 -0.13443305D-08 -0.13764309D-08 -0.13764309D-08 -0.00000000D+00
 -0.00000000D+00 -0.00000000D+00  0.25142674D-05  0.11133192D-06  0.11133192D-06
  0.00000000D+00  0.00000000D+00  0.00000000D+00
MO   11     MO 0.0        OCC NO =    0.0000000  ORB. ENERGY =    0.018291
  0.00000000D+00 -0.00000000D+00 -0.00000000D+00  0.00000000D+00 -0.00000000D+00
 -0.00000000D+00 -0.00000000D+00  0.00000000D+00  0.00000000D+00 -0.00000000D+00
 -0.00000000D+00 -0.99576243D-06 -0.45557445D-06 -0.00000000D+00  0.11329322D-04
  0.51833139D-05 -0.00000000D+00 -0.18906171D-03 -0.86498220D-04  0.00000000D+00
  0.77801137D-03  0.35595044D-03 -0.00000000D+00 -0.00000000D+00 -0.00000000D+00
  0.16554449D-07  0.75738783D-08  0.00000000D+00 -0.00000000D+00 -0.00000000D+00
 -0.00000000D+00 -0.21409701D-06 -0.97952190D-07 -0.00000000D+00 -0.00000000D+00
  0.00000000D+00  0.00000000D+00 -0.00000000D+00  0.00000000D+00 -0.00000000D+00
  0.00000000D+00 -0.00000000D+00 -0.00000000D+00  0.00000000D+00 -0.00000000D+00
 -0.99576243D-06 -0.45557445D-06 -0.00000000D+00  0.11329322D-04  0.51833139D-05
 -0.00000000D+00 -0.18906171D-03 -0.86498220D-04  0.00000000D+00  0.77801137D-03
  0.35595044D-03  0.00000000D+00  0.00000000D+00  0.00000000D+00 -0.16554449D-07
 -0.75738783D-08 -0.00000000D+00  0.00000000D+00  0.00000000D+00  0.00000000D+00
  0.21409701D-06  0.97952190D-07  0.00000000D+00
MO   12     MO 0.0        OCC NO =    0.0000000  ORB. ENERGY =    0.018291
  0.00000000D+00  0.00000000D+00  0.00000000D+00 -0.00000000D+00  0.00000000D+00
 -0.00000000D+00  0.00000000D+00 -0.00000000D+00 -0.00000000D+00  0.00000000D+00
 -0.00000000D+00  0.45557445D-06 -0.99576243D-06  0.00000000D+00 -0.51833139D-05
  0.11329322D-04  0.00000000D+00  0.86498220D-04 -0.18906171D-03 -0.00000000D+00
 -0.35595044D-03  0.77801137D-03 -0.00000000D+00  0.00000000D+00 -0.00000000D+00
 -0.75738783D-08  0.16554449D-07 -0.00000000D+00  0.00000000D+00 -0.00000000D+00
 -0.00000000D+00  0.97952190D-07 -0.21409701D-06 -0.00000000D+00  0.00000000D+00
 -0.00000000D+00 -0.00000000D+00  0.00000000D+00 -0.00000000D+00  0.00000000D+00
 -0.00000000D+00  0.00000000D+00  0.00000000D+00 -0.00000000D+00  0.00000000D+00
  0.45557445D-06 -0.99576243D-06  0.00000000D+00 -0.51833139D-05  0.11329322D-04
  0.00000000D+00  0.86498220D-04 -0.18906171D-03 -0.00000000D+00 -0.35595044D-03
  0.77801137D-03 -0.00000000D+00 -0.00000000D+00  0.00000000D+00  0.75738783D-08
 -0.16554449D-07 -0.00000000D+00 -0.00000000D+00  0.00000000D+00  0.00000000D+00
 -0.97952190D-07  0.21409701D-06  0.00000000D+00
MO   13     MO 0.0        OCC NO =    0.0000000  ORB. ENERGY =    0.021815
  0.23193415D-03  0.73385305D-04 -0.59603758D-03  0.86980591D-02 -0.12881065D-01
 -0.10007587D-02 -0.70146611D-02  0.10639830D-01  0.84769185D-03  0.22564158D-03
 -0.61315725D-05 -0.00000000D+00  0.00000000D+00  0.61452680D-05  0.00000000D+00
 -0.00000000D+00 -0.39859377D-04 -0.00000000D+00  0.00000000D+00 -0.27620179D-03
  0.00000000D+00 -0.00000000D+00 -0.33176948D-07 -0.29342935D-08 -0.29342935D-08
 -0.00000000D+00 -0.00000000D+00  0.00000000D+00 -0.32706805D-07 -0.46625531D-07
 -0.46625531D-07  0.00000000D+00 -0.00000000D+00 -0.00000000D+00  0.23193415D-03
  0.73385305D-04 -0.59603758D-03  0.86980591D-02 -0.12881065D-01 -0.10007587D-02
 -0.70146611D-02  0.10639830D-01  0.84769185D-03  0.22564158D-03  0.61315725D-05
  0.00000000D+00 -0.00000000D+00 -0.61452680D-05 -0.00000000D+00  0.00000000D+00
  0.39859377D-04 -0.00000000D+00  0.00000000D+00  0.27620179D-03  0.00000000D+00
 -0.00000000D+00 -0.33176948D-07 -0.29342935D-08 -0.29342935D-08 -0.00000000D+00
  0.00000000D+00 -0.00000000D+00 -0.32706805D-07 -0.46625531D-07 -0.46625531D-07
  0.00000000D+00 -0.00000000D+00  0.00000000D+00
MO   14     MO 0.0        OCC NO =    0.0000000  ORB. ENERGY =    0.023752
 -0.34233767D-04  0.86897712D-02 -0.61130866D-02  0.15060621D-01 -0.16246825D-01
 -0.39942811D-03 -0.78713957D-02  0.11569004D-01  0.76141334D-03  0.29833673D-03
 -0.55541722D-06  0.00000000D+00 -0.00000000D+00  0.14995497D-03 -0.00000000D+00
  0.00000000D+00 -0.18940166D-03  0.00000000D+00 -0.00000000D+00 -0.27924610D-03
 -0.00000000D+00 -0.00000000D+00 -0.31612301D-08 -0.53396977D-08 -0.53396977D-08
  0.00000000D+00 -0.00000000D+00 -0.00000000D+00  0.72279306D-06  0.10829268D-07
  0.10829268D-07 -0.00000000D+00  0.00000000D+00  0.00000000D+00  0.34233767D-04
 -0.86897712D-02  0.61130866D-02 -0.15060621D-01  0.16246825D-01  0.39942811D-03
  0.78713957D-02 -0.11569004D-01 -0.76141334D-03 -0.29833673D-03 -0.55541722D-06
 -0.00000000D+00  0.00000000D+00  0.14995497D-03  0.00000000D+00 -0.00000000D+00
 -0.18940166D-03 -0.00000000D+00  0.00000000D+00 -0.27924610D-03  0.00000000D+00
 -0.00000000D+00  0.31612301D-08  0.53396977D-08  0.53396977D-08  0.00000000D+00
 -0.00000000D+00  0.00000000D+00 -0.72279306D-06 -0.10829268D-07 -0.10829268D-07
 -0.00000000D+00  0.00000000D+00 -0.00000000D+00
MO   15     MO 0.0        OCC NO =    0.0000000  ORB. ENERGY =    0.024563
  0.00000000D+00 -0.00000000D+00 -0.00000000D+00  0.00000000D+00 -0.00000000D+00
  0.00000000D+00 -0.00000000D+00  0.00000000D+00 -0.00000000D+00  0.00000000D+00
 -0.00000000D+00 -0.33214574D-04 -0.25243989D-04 -0.00000000D+00  0.33353584D-04
  0.25349640D-04  0.00000000D+00 -0.26742236D-03 -0.20324834D-03 -0.00000000D+00
  0.56632153D-03  0.43041993D-03 -0.00000000D+00 -0.00000000D+00 -0.00000000D+00
 -0.15698191D-06 -0.11931056D-06  0.00000000D+00 -0.00000000D+00 -0.00000000D+00
 -0.00000000D+00  0.13021095D-06  0.98963905D-07 -0.00000000D+00 -0.00000000D+00
  0.00000000D+00 -0.00000000D+00 -0.00000000D+00  0.00000000D+00  0.00000000D+00
  0.00000000D+00 -0.00000000D+00  0.00000000D+00 -0.00000000D+00  0.00000000D+00
  0.33214574D-04  0.25243989D-04 -0.00000000D+00 -0.33353584D-04 -0.25349640D-04
  0.00000000D+00  0.26742236D-03  0.20324834D-03 -0.00000000D+00 -0.56632153D-03
 -0.43041993D-03 -0.00000000D+00  0.00000000D+00  0.00000000D+00 -0.15698191D-06
 -0.11931056D-06 -0.00000000D+00  0.00000000D+00  0.00000000D+00  0.00000000D+00
  0.13021095D-06  0.98963905D-07  0.00000000D+00
MO   16     MO 0.0        OCC NO =    0.0000000  ORB. ENERGY =    0.024563
 -0.00000000D+00 -0.00000000D+00 -0.00000000D+00  0.00000000D+00 -0.00000000D+00
 -0.00000000D+00 -0.00000000D+00  0.00000000D+00  0.00000000D+00  0.00000000D+00
  0.00000000D+00 -0.25243989D-04  0.33214574D-04 -0.00000000D+00  0.25349640D-04
 -0.33353584D-04  0.00000000D+00 -0.20324834D-03  0.26742236D-03 -0.00000000D+00
  0.43041993D-03 -0.56632153D-03  0.00000000D+00 -0.00000000D+00 -0.00000000D+00
 -0.11931056D-06  0.15698191D-06  0.00000000D+00 -0.00000000D+00 -0.00000000D+00
 -0.00000000D+00  0.98963905D-07 -0.13021095D-06 -0.00000000D+00 -0.00000000D+00
  0.00000000D+00  0.00000000D+00 -0.00000000D+00  0.00000000D+00  0.00000000D+00
  0.00000000D+00 -0.00000000D+00  0.00000000D+00 -0.00000000D+00 -0.00000000D+00
  0.25243989D-04 -0.33214574D-04 -0.00000000D+00 -0.25349640D-04  0.33353584D-04
 -0.00000000D+00  0.20324834D-03 -0.26742236D-03 -0.00000000D+00 -0.43041993D-03
  0.56632153D-03  0.00000000D+00  0.00000000D+00  0.00000000D+00 -0.11931056D-06
  0.15698191D-06 -0.00000000D+00  0.00000000D+00  0.00000000D+00  0.00000000D+00
  0.98963905D-07 -0.13021095D-06 -0.00000000D+00
MO   17     MO 0.0        OCC NO =    0.0000000  ORB. ENERGY =    0.030660
  0.16569082D-02 -0.85180610D-04  0.40136261D-03 -0.56480850D-02  0.61582469D-02
 -0.21934612D-03  0.26344725D-02 -0.36506847D-02 -0.13694623D-03 -0.12901080D-03
 -0.41543120D-04 -0.00000000D+00 -0.00000000D+00  0.57272408D-04  0.00000000D+00
  0.00000000D+00 -0.25891036D-03 -0.00000000D+00  0.00000000D+00  0.66358169D-03
  0.00000000D+00 -0.00000000D+00 -0.23507674D-06 -0.21665390D-07 -0.21665390D-07
 -0.00000000D+00 -0.00000000D+00  0.00000000D+00  0.99239566D-07 -0.35629648D-06
 -0.35629648D-06  0.00000000D+00  0.00000000D+00 -0.00000000D+00  0.16569082D-02
 -0.85180610D-04  0.40136261D-03 -0.56480850D-02  0.61582469D-02 -0.21934612D-03
  0.26344725D-02 -0.36506847D-02 -0.13694623D-03 -0.12901080D-03  0.41543120D-04
  0.00000000D+00  0.00000000D+00 -0.57272408D-04 -0.00000000D+00 -0.00000000D+00
  0.25891036D-03  0.00000000D+00  0.00000000D+00 -0.66358169D-03 -0.00000000D+00
 -0.00000000D+00 -0.23507674D-06 -0.21665390D-07 -0.21665390D-07 -0.00000000D+00
 -0.00000000D+00 -0.00000000D+00  0.99239566D-07 -0.35629648D-06 -0.35629648D-06
  0.00000000D+00  0.00000000D+00  0.00000000D+00
MO   18     MO 0.0        OCC NO =    0.0000000  ORB. ENERGY =    0.031010
 -0.36391664D-02 -0.41789927D-02  0.18472291D-01 -0.20024276D-01  0.12794648D-01
  0.32008435D-02  0.42125477D-02 -0.77329068D-02 -0.12634300D-02  0.39734805D-04
  0.40024533D-04  0.00000000D+00  0.00000000D+00 -0.77967755D-04 -0.00000000D+00
 -0.00000000D+00  0.65353041D-04  0.00000000D+00 -0.00000000D+00 -0.16601856D-03
 -0.00000000D+00  0.00000000D+00  0.30034118D-06  0.90552860D-07  0.90552860D-07
  0.00000000D+00  0.00000000D+00  0.00000000D+00  0.10442060D-05  0.19114703D-05
  0.19114703D-05 -0.00000000D+00 -0.00000000D+00 -0.00000000D+00 -0.36391664D-02
 -0.41789927D-02  0.18472291D-01 -0.20024276D-01  0.12794648D-01  0.32008435D-02
  0.42125477D-02 -0.77329068D-02 -0.12634300D-02  0.39734805D-04 -0.40024533D-04
 -0.00000000D+00 -0.00000000D+00  0.77967755D-04  0.00000000D+00  0.00000000D+00
 -0.65353041D-04 -0.00000000D+00  0.00000000D+00  0.16601856D-03  0.00000000D+00
 -0.00000000D+00  0.30034118D-06  0.90552860D-07  0.90552860D-07  0.00000000D+00
  0.00000000D+00 -0.00000000D+00  0.10442060D-05  0.19114703D-05  0.19114703D-05
 -0.00000000D+00 -0.00000000D+00 -0.00000000D+00
MO   19     MO 0.0        OCC NO =    0.0000000  ORB. ENERGY =    0.031854
  0.16774107D-03 -0.27037505D-01 -0.12107050D-02  0.69578754D-02 -0.67664596D-02
  0.27673865D-03 -0.26889959D-02  0.37017200D-02  0.12846697D-03  0.13437589D-03
 -0.26313732D-05 -0.00000000D+00 -0.00000000D+00 -0.49544289D-03  0.00000000D+00
  0.00000000D+00  0.44765959D-03 -0.00000000D+00 -0.00000000D+00 -0.58130654D-03
  0.00000000D+00  0.00000000D+00 -0.30595904D-07 -0.23403503D-07 -0.23403503D-07
 -0.00000000D+00 -0.00000000D+00  0.00000000D+00 -0.30378469D-05 -0.58210922D-06
 -0.58210922D-06  0.00000000D+00  0.00000000D+00 -0.00000000D+00 -0.16774107D-03
  0.27037505D-01  0.12107050D-02 -0.69578754D-02  0.67664596D-02 -0.27673865D-03
  0.26889959D-02 -0.37017200D-02 -0.12846697D-03 -0.13437589D-03 -0.26313732D-05
  0.00000000D+00  0.00000000D+00 -0.49544289D-03 -0.00000000D+00 -0.00000000D+00
  0.44765959D-03  0.00000000D+00  0.00000000D+00 -0.58130654D-03 -0.00000000D+00
 -0.00000000D+00  0.30595904D-07  0.23403503D-07  0.23403503D-07 -0.00000000D+00
 -0.00000000D+00 -0.00000000D+00  0.30378469D-05  0.58210922D-06  0.58210922D-06
  0.00000000D+00  0.00000000D+00  0.00000000D+00
MO   20     MO 0.0        OCC NO =    0.0000000  ORB. ENERGY =    0.039393
 -0.61806609D-03 -0.17264635D-01  0.16689658D-01 -0.11944114D-01  0.38511515D-02
  0.59931543D-02  0.37886739D-03 -0.34843364D-02 -0.15843480D-02  0.33923220D-03
  0.46914218D-04 -0.00000000D+00 -0.00000000D+00 -0.28303583D-03  0.00000000D+00
  0.00000000D+00 -0.93349301D-04 -0.00000000D+00 -0.00000000D+00  0.10727252D-03
  0.00000000D+00  0.00000000D+00  0.62549669D-06  0.55350187D-06  0.55350187D-06
 -0.00000000D+00 -0.00000000D+00  0.00000000D+00  0.24424379D-05  0.38446969D-05
  0.38446969D-05  0.00000000D+00  0.00000000D+00 -0.00000000D+00  0.61806609D-03
  0.17264635D-01 -0.16689658D-01  0.11944114D-01 -0.38511515D-02 -0.59931543D-02
 -0.37886739D-03  0.34843364D-02  0.15843480D-02 -0.33923220D-03  0.46914218D-04
  0.00000000D+00  0.00000000D+00 -0.28303583D-03 -0.00000000D+00 -0.00000000D+00
 -0.93349301D-04  0.00000000D+00  0.00000000D+00  0.10727252D-03 -0.00000000D+00
 -0.00000000D+00 -0.62549669D-06 -0.55350187D-06 -0.55350187D-06 -0.00000000D+00
 -0.00000000D+00 -0.00000000D+00 -0.24424379D-05 -0.38446969D-05 -0.38446969D-05
  0.00000000D+00  0.00000000D+00  0.00000000D+00
MO   21     MO 0.0        OCC NO =    0.0000000  ORB. ENERGY =    0.041898
 -0.00000000D+00  0.00000000D+00 -0.00000000D+00  0.00000000D+00 -0.00000000D+00
 -0.00000000D+00  0.00000000D+00  0.00000000D+00  0.00000000D+00 -0.00000000D+00
  0.00000000D+00  0.00000000D+00 -0.00000000D+00  0.00000000D+00 -0.00000000D+00
  0.00000000D+00 -0.00000000D+00  0.00000000D+00 -0.00000000D+00 -0.00000000D+00
 -0.00000000D+00  0.00000000D+00  0.00000000D+00 -0.51831275D-07  0.51831275D-07
  0.00000000D+00 -0.00000000D+00  0.73856242D-10  0.00000000D+00  0.67329025D-06
 -0.67329025D-06 -0.00000000D+00  0.00000000D+00 -0.95938841D-09 -0.00000000D+00
 -0.00000000D+00  0.00000000D+00 -0.00000000D+00  0.00000000D+00  0.00000000D+00
 -0.00000000D+00 -0.00000000D+00 -0.00000000D+00  0.00000000D+00 -0.00000000D+00
 -0.00000000D+00  0.00000000D+00  0.00000000D+00  0.00000000D+00 -0.00000000D+00
 -0.00000000D+00 -0.00000000D+00 -0.00000000D+00  0.00000000D+00  0.00000000D+00
  0.00000000D+00  0.00000000D+00 -0.51831275D-07  0.51831275D-07  0.00000000D+00
 -0.00000000D+00  0.73856242D-10 -0.00000000D+00  0.67329025D-06 -0.67329025D-06
 -0.00000000D+00 -0.00000000D+00 -0.95938841D-09
MO   22     MO 0.0        OCC NO =    0.0000000  ORB. ENERGY =    0.041898
 -0.00000000D+00  0.00000000D+00 -0.00000000D+00  0.00000000D+00 -0.00000000D+00
 -0.00000000D+00  0.00000000D+00  0.00000000D+00  0.00000000D+00 -0.00000000D+00
  0.00000000D+00  0.00000000D+00  0.00000000D+00  0.00000000D+00 -0.00000000D+00
 -0.00000000D+00 -0.00000000D+00  0.00000000D+00 -0.00000000D+00 -0.00000000D+00
 -0.00000000D+00  0.00000000D+00  0.00000000D+00  0.36927924D-10 -0.36927924D-10
  0.00000000D+00  0.00000000D+00  0.10366255D-06  0.00000000D+00 -0.47969448D-09
  0.47969448D-09 -0.00000000D+00 -0.00000000D+00 -0.13465805D-05  0.00000000D+00
 -0.00000000D+00  0.00000000D+00 -0.00000000D+00  0.00000000D+00  0.00000000D+00
 -0.00000000D+00 -0.00000000D+00 -0.00000000D+00  0.00000000D+00  0.00000000D+00
 -0.00000000D+00 -0.00000000D+00  0.00000000D+00  0.00000000D+00  0.00000000D+00
 -0.00000000D+00 -0.00000000D+00 -0.00000000D+00 -0.00000000D+00  0.00000000D+00
  0.00000000D+00 -0.00000000D+00  0.36927924D-10 -0.36927924D-10  0.00000000D+00
  0.00000000D+00  0.10366255D-06 -0.00000000D+00 -0.47969448D-09  0.47969448D-09
 -0.00000000D+00 -0.00000000D+00 -0.13465805D-05
MO   23     MO 0.0        OCC NO =    0.0000000  ORB. ENERGY =    0.042637
  0.57745627D-03 -0.77866606D-01  0.11095697D-01 -0.89588263D-02  0.24601524D-03
  0.10277602D-01 -0.12055411D-02 -0.32251282D-02 -0.24843234D-02  0.63625431D-03
 -0.13612739D-04 -0.00000000D+00 -0.00000000D+00 -0.11692405D-02  0.00000000D+00
  0.00000000D+00 -0.44934347D-04 -0.00000000D+00 -0.00000000D+00  0.96327853D-04
  0.00000000D+00 -0.00000000D+00 -0.26600137D-06 -0.31775415D-06 -0.31775415D-06
 -0.00000000D+00 -0.00000000D+00  0.00000000D+00 -0.60322748D-05  0.39304452D-06
  0.39304452D-06  0.00000000D+00  0.00000000D+00 -0.00000000D+00 -0.57745627D-03
  0.77866606D-01 -0.11095697D-01  0.89588263D-02 -0.24601524D-03 -0.10277602D-01
  0.12055411D-02  0.32251282D-02  0.24843234D-02 -0.63625431D-03 -0.13612739D-04
  0.00000000D+00  0.00000000D+00 -0.11692405D-02 -0.00000000D+00 -0.00000000D+00
 -0.44934347D-04  0.00000000D+00  0.00000000D+00  0.96327853D-04 -0.00000000D+00
 -0.00000000D+00  0.26600137D-06  0.31775415D-06  0.31775415D-06 -0.00000000D+00
 -0.00000000D+00 -0.00000000D+00  0.60322748D-05 -0.39304452D-06 -0.39304452D-06
  0.00000000D+00  0.00000000D+00 -0.00000000D+00
MO   24     MO 0.0        OCC NO =    0.0000000  ORB. ENERGY =    0.042853
  0.77676701D-02 -0.33122053D-02 -0.17441343D-02 -0.26687564D-03 -0.42747295D-03
  0.18073548D-02 -0.33302806D-03 -0.39665535D-03 -0.42937147D-03  0.11767661D-03
 -0.13199840D-03 -0.00000000D+00 -0.00000000D+00  0.48061766D-04  0.00000000D+00
  0.00000000D+00 -0.46368167D-04 -0.00000000D+00 -0.00000000D+00  0.38488733D-04
  0.00000000D+00  0.00000000D+00 -0.93047835D-06 -0.18996576D-06 -0.18996576D-06
 -0.00000000D+00 -0.00000000D+00  0.00000000D+00 -0.80409214D-06 -0.14015258D-05
 -0.14015258D-05  0.00000000D+00  0.00000000D+00 -0.00000000D+00  0.77676701D-02
 -0.33122053D-02 -0.17441343D-02 -0.26687564D-03 -0.42747295D-03  0.18073548D-02
 -0.33302806D-03 -0.39665535D-03 -0.42937147D-03  0.11767661D-03  0.13199840D-03
  0.00000000D+00  0.00000000D+00 -0.48061766D-04 -0.00000000D+00 -0.00000000D+00