[Molden Format]
[Title]
 Molden2AIM, Version 3.1.0 (02/25/2015)           Time: Thu Oct 17 19:52:54 2024

[Atoms] AU
E+       1       4     0.00000000     0.00000000     0.00000000
E+       2       4    12.80000000     0.00000000     0.00000000
[GTO]
    1 0
 S   1 1.0
    0.1000000000D-03      0.1000000000D+01
 S   1 1.0
    0.3000000000D-03      0.1000000000D+01
 S   1 1.0
    0.9000000000D-03      0.1000000000D+01
 S   1 1.0
    0.2700000000D-02      0.1000000000D+01
 S   1 1.0
    0.8100000000D-02      0.1000000000D+01
 S   1 1.0
    0.2430000000D-01      0.1000000000D+01
 S   1 1.0
    0.7290000000D-01      0.1000000000D+01
 S   1 1.0
    0.2187000000D+00      0.1000000000D+01
 S   1 1.0
    0.6561000000D+00      0.1000000000D+01
 S   1 1.0
    0.1968300000D+01      0.1000000000D+01
 P   1 1.0
    0.1000000000D-03      0.1000000000D+01
 P   1 1.0
    0.3000000000D-03      0.1000000000D+01
 P   1 1.0
    0.9000000000D-03      0.1000000000D+01
 P   1 1.0
    0.2700000000D-02      0.1000000000D+01
 D   1 1.0
    0.1000000000D-03      0.1000000000D+01
 D   1 1.0
    0.3000000000D-03      0.1000000000D+01

    2 0
 S   1 1.0
    0.1000000000D-03      0.1000000000D+01
 S   1 1.0
    0.3000000000D-03      0.1000000000D+01
 S   1 1.0
    0.9000000000D-03      0.1000000000D+01
 S   1 1.0
    0.2700000000D-02      0.1000000000D+01
 S   1 1.0
    0.8100000000D-02      0.1000000000D+01
 S   1 1.0
    0.2430000000D-01      0.1000000000D+01
 S   1 1.0
    0.7290000000D-01      0.1000000000D+01
 S   1 1.0
    0.2187000000D+00      0.1000000000D+01
 S   1 1.0
    0.6561000000D+00      0.1000000000D+01
 S   1 1.0
    0.1968300000D+01      0.1000000000D+01
 P   1 1.0
    0.1000000000D-03      0.1000000000D+01
 P   1 1.0
    0.3000000000D-03      0.1000000000D+01
 P   1 1.0
    0.9000000000D-03      0.1000000000D+01
 P   1 1.0
    0.2700000000D-02      0.1000000000D+01
 D   1 1.0
    0.1000000000D-03      0.1000000000D+01
 D   1 1.0
    0.3000000000D-03      0.1000000000D+01


[MO]
 Ene=         -0.00739452
 Spin= Alpha
 Occup=        1.00000000
    1        0.0106938200
    2        0.1048185600
    3       -0.0353889100
    4       -0.1108695900
    5       -0.2531249000
    6       -0.2159235100
    7       -0.1204760400
    8        0.1020026000
    9        0.0076499500
   10       -0.0002023900
   11        0.0055403600
   12       -0.0000000000
   13       -0.0000000000
   14       -0.3929208800
   15       -0.0000000000
   16        0.0000000000
   17        0.0223314900
   18        0.0000000000
   19       -0.0000000000
   20       -0.0295797800
   21       -0.0000000000
   22        0.0000000000
   23       -0.0010586200
   24       -0.0015222200
   25       -0.0015222200
   26       -0.0000000000
   27       -0.0000000000
   28       -0.0000000000
   29       -0.0816497300
   30       -0.0067963000
   31       -0.0067963000
   32       -0.0000000000
   33        0.0000000000
   34       -0.0000000000
   35        0.0106938200
   36        0.1048185600
   37       -0.0353889100
   38       -0.1108695900
   39       -0.2531249000
   40       -0.2159235100
   41       -0.1204760400
   42        0.1020026000
   43        0.0076499500
   44       -0.0002023900
   45       -0.0055403600
   46        0.0000000000
   47        0.0000000000
   48        0.3929208800
   49        0.0000000000
   50       -0.0000000000
   51       -0.0223314900
   52       -0.0000000000
   53        0.0000000000
   54        0.0295797800
   55        0.0000000000
   56       -0.0000000000
   57       -0.0010586200
   58       -0.0015222200
   59       -0.0015222200
   60       -0.0000000000
   61       -0.0000000000
   62        0.0000000000
   63       -0.0816497300
   64       -0.0067963000
   65       -0.0067963000
   66       -0.0000000000
   67        0.0000000000
   68        0.0000000000
 Ene=          0.00110413
 Spin= Alpha
 Occup=        0.00000000
    1       -0.0034059300
    2       -0.0016873600
    3        5.5776960100
    4       -0.2989346000
    5        0.3974521300
    6        0.1571189000
    7        0.1035929700
    8       -0.0840752000
    9       -0.0057915100
   10        0.0000832800
   11        0.0471940200
   12       -0.0000000000
   13        0.0000000000
   14        0.0223859400
   15       -0.0000000000
   16        0.0000000000
   17        0.8838196600
   18       -0.0000000000
   19       -0.0000000000
   20       -0.2556019400
   21        0.0000000000
   22        0.0000000000
   23        0.1210755300
   24        0.1531171100
   25        0.1531171100
   26       -0.0000000000
   27        0.0000000000
   28       -0.0000000000
   29        0.2622109100
   30        0.2091657500
   31        0.2091657500
   32       -0.0000000000
   33        0.0000000000
   34        0.0000000000
   35        0.0034059300
   36        0.0016873600
   37       -5.5776960100
   38        0.2989346000
   39       -0.3974521300
   40       -0.1571189000
   41       -0.1035929700
   42        0.0840752000
   43        0.0057915100
   44       -0.0000832800
   45        0.0471940200
   46        0.0000000000
   47       -0.0000000000
   48        0.0223859400
   49        0.0000000000
   50       -0.0000000000
   51        0.8838196600
   52        0.0000000000
   53        0.0000000000
   54       -0.2556019400
   55       -0.0000000000
   56       -0.0000000000
   57       -0.1210755300
   58       -0.1531171100
   59       -0.1531171100
   60       -0.0000000000
   61        0.0000000000
   62        0.0000000000
   63       -0.2622109100
   64       -0.2091657500
   65       -0.2091657500
   66       -0.0000000000
   67        0.0000000000
   68       -0.0000000000
 Ene=          0.00270095
 Spin= Alpha
 Occup=        0.00000000
    1        0.1636086700
    2       -0.0175656800
    3       -1.1944878100
    4        0.7308679700
    5       -0.1203401500
    6        0.1186550800
    7        0.0083022500
    8       -0.0180343100
    9       -0.0031632900
   10        0.0002918100
   11        0.0067928700
   12        0.0000000000
   13        0.0000000000
   14        1.5878847700
   15        0.0000000000
   16       -0.0000000000
   17       -0.2427192000
   18       -0.0000000000
   19        0.0000000000
   20        0.0392378900
   21        0.0000000000
   22       -0.0000000000
   23       -0.0212505900
   24       -0.0234146000
   25       -0.0234146000
   26        0.0000000000
   27        0.0000000000
   28       -0.0000000000
   29        0.1962698700
   30       -0.1020478400
   31       -0.1020478400
   32        0.0000000000
   33       -0.0000000000
   34        0.0000000000
   35        0.1636086700
   36       -0.0175656800
   37       -1.1944878100
   38        0.7308679700
   39       -0.1203401500
   40        0.1186550800
   41        0.0083022500
   42       -0.0180343100
   43       -0.0031632900
   44        0.0002918100
   45       -0.0067928700
   46       -0.0000000000
   47       -0.0000000000
   48       -1.5878847700
   49       -0.0000000000
   50        0.0000000000
   51        0.2427192100
   52        0.0000000000
   53       -0.0000000000
   54       -0.0392378900
   55       -0.0000000000
   56        0.0000000000
   57       -0.0212505900
   58       -0.0234146000
   59       -0.0234146000
   60        0.0000000000
   61        0.0000000000
   62        0.0000000000
   63        0.1962698700
   64       -0.1020478400
   65       -0.1020478400
   66        0.0000000000
   67       -0.0000000000
   68       -0.0000000000
 Ene=          0.00362301
 Spin= Alpha
 Occup=        0.00000000
    1        0.0000000000
    2       -0.0000000000
    3       -0.0000000000
    4       -0.0000000000
    5        0.0000000000
    6        0.0000000000
    7        0.0000000000
    8       -0.0000000000
    9       -0.0000000000
   10       -0.0000000000
   11       -0.0000000000
   12        0.0000211200
   13        0.0282669000
   14        0.0000000000
   15       -0.0000901000
   16       -0.1206085900
   17       -0.0000000000
   18        0.0004141200
   19        0.5543346200
   20       -0.0000000000
   21        0.0000311000
   22        0.0416277900
   23        0.0000000000
   24       -0.0000000000
   25       -0.0000000000
   26        0.0000900800
   27        0.1205847000
   28       -0.0000000000
   29        0.0000000000
   30        0.0000000000
   31        0.0000000000
   32       -0.0000455600
   33       -0.0609840100
   34       -0.0000000000
   35        0.0000000000
   36       -0.0000000000
   37        0.0000000000
   38        0.0000000000
   39       -0.0000000000
   40        0.0000000000
   41       -0.0000000000
   42        0.0000000000
   43        0.0000000000
   44       -0.0000000000
   45        0.0000000000
   46        0.0000211200
   47        0.0282669000
   48       -0.0000000000
   49       -0.0000901000
   50       -0.1206085800
   51       -0.0000000000
   52        0.0004141200
   53        0.5543346200
   54       -0.0000000000
   55        0.0000311000
   56        0.0416277900
   57       -0.0000000000
   58        0.0000000000
   59        0.0000000000
   60       -0.0000900800
   61       -0.1205847000
   62        0.0000000000
   63        0.0000000000
   64       -0.0000000000
   65       -0.0000000000
   66        0.0000455600
   67        0.0609840100
   68        0.0000000000
 Ene=          0.00362301
 Spin= Alpha
 Occup=        0.00000000
    1       -0.0000000000
    2       -0.0000000000
    3        0.0000000000
    4       -0.0000000000
    5        0.0000000000
    6       -0.0000000000
    7       -0.0000000000
    8        0.0000000000
    9        0.0000000000
   10       -0.0000000000
   11       -0.0000000000
   12        0.0282669000
   13       -0.0000211200
   14        0.0000000000
   15       -0.1206085900
   16        0.0000901000
   17        0.0000000000
   18        0.5543346200
   19       -0.0004141200
   20       -0.0000000000
   21        0.0416277900
   22       -0.0000311000
   23       -0.0000000000
   24        0.0000000000
   25        0.0000000000
   26        0.1205847000
   27       -0.0000900800
   28        0.0000000000
   29        0.0000000000
   30       -0.0000000000
   31       -0.0000000000
   32       -0.0609840100
   33        0.0000455600
   34        0.0000000000
   35       -0.0000000000
   36       -0.0000000000
   37       -0.0000000000
   38        0.0000000000
   39       -0.0000000000
   40        0.0000000000
   41        0.0000000000
   42       -0.0000000000
   43       -0.0000000000
   44        0.0000000000
   45        0.0000000000
   46        0.0282669000
   47       -0.0000211200
   48       -0.0000000000
   49       -0.1206085800
   50        0.0000901000
   51        0.0000000000
   52        0.5543346200
   53       -0.0004141200
   54       -0.0000000000
   55        0.0416277900
   56       -0.0000311000
   57        0.0000000000
   58        0.0000000000
   59        0.0000000000
   60       -0.1205847000
   61        0.0000900800
   62       -0.0000000000
   63        0.0000000000
   64        0.0000000000
   65        0.0000000000
   66        0.0609840100
   67       -0.0000455600
   68        0.0000000000
 Ene=          0.00498609
 Spin= Alpha
 Occup=        0.00000000
    1        0.0116140900
    2        0.0067392000
    3      -20.0252540400
    4        2.1404869700
    5        0.1936148600
    6        0.1366826000
    7        0.0673116300
    8       -0.0576694800
    9       -0.0044649900
   10        0.0001235200
   11       -0.1606228300
   12        0.0000000000
   13       -0.0000000000
   14       -0.0887242800
   15        0.0000000000
   16       -0.0000000000
   17       -3.1180629900
   18       -0.0000000000
   19        0.0000000000
   20        0.3717011500
   21        0.0000000000
   22       -0.0000000000
   23       -0.4139038700
   24       -0.5184365900
   25       -0.5184365900
   26        0.0000000000
   27       -0.0000000000
   28       -0.0000000000
   29       -0.9086187900
   30       -0.7338145700
   31       -0.7338145700
   32        0.0000000000
   33       -0.0000000000
   34        0.0000000000
   35       -0.0116140900
   36       -0.0067392000
   37       20.0252540400
   38       -2.1404869700
   39       -0.1936148600
   40       -0.1366826000
   41       -0.0673116300
   42        0.0576694800
   43        0.0044649900
   44       -0.0001235200
   45       -0.1606228300
   46       -0.0000000000
   47        0.0000000000
   48       -0.0887242800
   49       -0.0000000000
   50        0.0000000000
   51       -3.1180629900
   52        0.0000000000
   53       -0.0000000000
   54        0.3717011500
   55       -0.0000000000
   56        0.0000000000
   57        0.4139038700
   58        0.5184365900
   59        0.5184365900
   60        0.0000000000
   61       -0.0000000000
   62        0.0000000000
   63        0.9086187900
   64        0.7338145700
   65        0.7338145700
   66        0.0000000000
   67       -0.0000000000
   68        0.0000000000
 Ene=          0.00672035
 Spin= Alpha
 Occup=        0.00000000
    1       -0.2875753400
    2       -4.4086153300
    3        0.3322920600
    4        0.6586223100
    5       -0.1264815000
    6        0.0373465800
    7       -0.0171282900
    8        0.0070251500
    9       -0.0006193800
   10        0.0001504700
   11       -0.2224061500
   12        0.0000000000
   13        0.0000000000
   14       17.7260655900
   15        0.0000000000
   16       -0.0000000000
   17       -1.8367484200
   18       -0.0000000000
   19        0.0000000000
   20       -0.5086961200
   21       -0.0000000000
   22        0.0000000000
   23        0.0284667900
   24        0.0387282800
   25        0.0387282800
   26        0.0000000000
   27        0.0000000000
   28       -0.0000000000
   29        3.5461546300
   30        0.1994922700
   31        0.1994922700
   32        0.0000000000
   33       -0.0000000000
   34        0.0000000000
   35       -0.2875753400
   36       -4.4086153200
   37        0.3322920600
   38        0.6586223100
   39       -0.1264815000
   40        0.0373465800
   41       -0.0171282900
   42        0.0070251500
   43       -0.0006193800
   44        0.0001504700
   45        0.2224061500
   46       -0.0000000000
   47       -0.0000000000
   48      -17.7260655900
   49       -0.0000000000
   50        0.0000000000
   51        1.8367484200
   52        0.0000000000
   53       -0.0000000000
   54        0.5086961200
   55        0.0000000000
   56       -0.0000000000
   57        0.0284667900
   58        0.0387282800
   59        0.0387282800
   60        0.0000000000
   61        0.0000000000
   62        0.0000000000
   63        3.5461546300
   64        0.1994922700
   65        0.1994922700
   66        0.0000000000
   67       -0.0000000000
   68       -0.0000000000
 Ene=          0.00682157
 Spin= Alpha
 Occup=        0.00000000
    1        0.0000000000
    2       -0.0000000000
    3        0.0000000000
    4        0.0000000000
    5       -0.0000000000
    6        0.0000000000
    7       -0.0000000000
    8        0.0000000000
    9       -0.0000000000
   10        0.0000000000
   11        0.0000000000
   12       -0.8929644200
   13        0.1194081800
   14        0.0000000000
   15      -17.1102373400
   16        2.2879997000
   17       -0.0000000000
   18        2.1611173500
   19       -0.2889869800
   20       -0.0000000000
   21        0.5950316900
   22       -0.0795682900
   23        0.0000000000
   24       -0.0000000000
   25       -0.0000000000
   26       -0.0814602200
   27        0.0108929500
   28       -0.0000000000
   29        0.0000000000
   30        0.0000000000
   31        0.0000000000
   32       -1.8217032600
   33        0.2436001600
   34        0.0000000000
   35       -0.0000000000
   36        0.0000000000
   37       -0.0000000000
   38        0.0000000000
   39       -0.0000000000
   40        0.0000000000
   41       -0.0000000000
   42        0.0000000000
   43       -0.0000000000
   44        0.0000000000
   45       -0.0000000000
   46        0.8929644200
   47       -0.1194081800
   48       -0.0000000000
   49       17.1102373400
   50       -2.2879997000
   51        0.0000000000
   52       -2.1611173500
   53        0.2889869800
   54        0.0000000000
   55       -0.5950316900
   56        0.0795682900
   57        0.0000000000
   58        0.0000000000
   59        0.0000000000
   60       -0.0814602200
   61        0.0108929500
   62        0.0000000000
   63        0.0000000000
   64        0.0000000000
   65        0.0000000000
   66       -1.8217032600
   67        0.2436001600
   68       -0.0000000000
 Ene=          0.00682157
 Spin= Alpha
 Occup=        0.00000000
    1       -0.0000000000
    2       -0.0000000000
    3       -0.0000000000
    4       -0.0000000000
    5        0.0000000000
    6       -0.0000000000
    7        0.0000000000
    8       -0.0000000000
    9        0.0000000000
   10       -0.0000000000
   11       -0.0000000000
   12       -0.1194081800
   13       -0.8929644200
   14       -0.0000000000
   15       -2.2879997000
   16      -17.1102373400
   17        0.0000000000
   18        0.2889869800
   19        2.1611173500
   20        0.0000000000
   21        0.0795682900
   22        0.5950316900
   23       -0.0000000000
   24        0.0000000000
   25        0.0000000000
   26       -0.0108929500
   27       -0.0814602200
   28       -0.0000000000
   29       -0.0000000000
   30        0.0000000000
   31        0.0000000000
   32       -0.2436001600
   33       -1.8217032600
   34        0.0000000000
   35        0.0000000000
   36        0.0000000000
   37        0.0000000000
   38       -0.0000000000
   39        0.0000000000
   40       -0.0000000000
   41        0.0000000000
   42       -0.0000000000
   43        0.0000000000
   44       -0.0000000000
   45        0.0000000000
   46        0.1194081800
   47        0.8929644200
   48        0.0000000000
   49        2.2879997000
   50       17.1102373400
   51       -0.0000000000
   52       -0.2889869800
   53       -2.1611173500
   54       -0.0000000000
   55       -0.0795682900
   56       -0.5950316900
   57       -0.0000000000
   58       -0.0000000000
   59       -0.0000000000
   60       -0.0108929500
   61       -0.0814602200
   62        0.0000000000
   63       -0.0000000000
   64       -0.0000000000
   65       -0.0000000000
   66       -0.2436001600
   67       -1.8217032600
   68       -0.0000000000
 Ene=          0.00934466
 Spin= Alpha
 Occup=        0.00000000
    1        0.0000000000
    2        0.0000000000
    3       -0.0000000000
    4       -0.0000000000
    5        0.0000000000
    6       -0.0000000000
    7       -0.0000000000
    8        0.0000000000
    9        0.0000000000
   10       -0.0000000000
   11        0.0000000000
   12       -0.0000331600
   13       -0.0292251500
   14       -0.0000000000
   15        0.0001424400
   16        0.1255397000
   17       -0.0000000000
   18       -0.0007660900
   19       -0.6751801700
   20       -0.0000000000
   21        0.0008922400
   22        0.7863540100
   23        0.0000000000
   24        0.0000000000
   25        0.0000000000
   26       -0.0001252300
   27       -0.1103715900
   28        0.0000000000
   29       -0.0000000000
   30        0.0000000000
   31        0.0000000000
   32        0.0000559300
   33        0.0492933200
   34       -0.0000000000
   35        0.0000000000
   36        0.0000000000
   37        0.0000000000
   38        0.0000000000
   39       -0.0000000000
   40        0.0000000000
   41        0.0000000000
   42       -0.0000000000
   43       -0.0000000000
   44        0.0000000000
   45       -0.0000000000
   46       -0.0000331600
   47       -0.0292251500
   48        0.0000000000
   49        0.0001424400
   50        0.1255397000
   51       -0.0000000000
   52       -0.0007660900
   53       -0.6751801700
   54       -0.0000000000
   55        0.0008922400
   56        0.7863540100
   57       -0.0000000000
   58       -0.0000000000
   59       -0.0000000000
   60        0.0001252300
   61        0.1103715900
   62       -0.0000000000
   63       -0.0000000000
   64       -0.0000000000
   65       -0.0000000000
   66       -0.0000559300
   67       -0.0492933200
   68        0.0000000000
 Ene=          0.00934466
 Spin= Alpha
 Occup=        0.00000000
    1       -0.0000000000
    2       -0.0000000000
    3       -0.0000000000
    4       -0.0000000000
    5       -0.0000000000
    6       -0.0000000000
    7       -0.0000000000
    8        0.0000000000
    9        0.0000000000
   10       -0.0000000000
   11       -0.0000000000
   12        0.0292251500
   13       -0.0000331600
   14        0.0000000000
   15       -0.1255397000
   16        0.0001424400
   17       -0.0000000000
   18        0.6751801700
   19       -0.0007660900
   20       -0.0000000000
   21       -0.7863540100
   22        0.0008922400
   23        0.0000000000
   24        0.0000000000
   25       -0.0000000000
   26        0.1103715900
   27       -0.0001252300
   28        0.0000000000
   29        0.0000000000
   30        0.0000000000
   31        0.0000000000
   32       -0.0492933200
   33        0.0000559300
   34        0.0000000000
   35       -0.0000000000
   36       -0.0000000000
   37        0.0000000000
   38        0.0000000000
   39        0.0000000000
   40        0.0000000000
   41        0.0000000000
   42       -0.0000000000
   43       -0.0000000000
   44        0.0000000000
   45        0.0000000000
   46        0.0292251500
   47       -0.0000331600
   48       -0.0000000000
   49       -0.1255397000
   50        0.0001424400
   51       -0.0000000000
   52        0.6751801700
   53       -0.0007660900
   54       -0.0000000000
   55       -0.7863540100
   56        0.0008922400
   57       -0.0000000000
   58        0.0000000000
   59        0.0000000000
   60       -0.1103715900
   61        0.0001252300
   62       -0.0000000000
   63        0.0000000000
   64       -0.0000000000
   65       -0.0000000000
   66        0.0492933200
   67       -0.0000559300
   68       -0.0000000000
 Ene=          0.01043390
 Spin= Alpha
 Occup=        0.00000000
    1       -0.0029202800
    2       -0.0673017500
    3      -74.1143931200
    4      -12.7204899400
    5        0.1352058900
    6       -0.0581627900
    7       -0.0102151800
    8        0.0120393300
    9        0.0014162100
   10       -0.0000931300
   11        0.0504624500
   12        0.0000000000
   13       -0.0000000000
   14        0.2566280900
   15        0.0000000000
   16       -0.0000000000
   17      -14.3620172000
   18       -0.0000000000
   19        0.0000000000
   20       -5.3913646600
   21        0.0000000000
   22       -0.0000000000
   23        0.3824591400
   24       -0.0539730200
   25       -0.0539730200
   26        0.0000000000
   27       -0.0000000000
   28       -0.0000000000
   29        0.3395407900
   30        0.9989989400
   31        0.9989989400
   32        0.0000000000
   33       -0.0000000000
   34        0.0000000000
   35        0.0029202800
   36        0.0673017500
   37       74.1143931200
   38       12.7204899400
   39       -0.1352058900
   40        0.0581627900
   41        0.0102151800
   42       -0.0120393300
   43       -0.0014162100
   44        0.0000931300
   45        0.0504624500
   46       -0.0000000000
   47        0.0000000000
   48        0.2566280900
   49       -0.0000000000
   50        0.0000000000
   51      -14.3620172000
   52        0.0000000000
   53       -0.0000000000
   54       -5.3913646600
   55       -0.0000000000
   56        0.0000000000
   57       -0.3824591400
   58        0.0539730200
   59        0.0539730200
   60        0.0000000000
   61       -0.0000000000
   62        0.0000000000
   63       -0.3395407900
   64       -0.9989989400
   65       -0.9989989400
   66        0.0000000000
   67       -0.0000000000
   68       -0.0000000000
 Ene=          0.01163070
 Spin= Alpha
 Occup=        0.00000000
    1        0.1268076900
    2       -2.1284551700
    3        0.8787810100
    4       -1.6658278700
    5        1.0882223200
    6       -0.0935114600
    7        0.1117696400
    8       -0.0627315500
    9        0.0001297800
   10       -0.0005795800
   11       -0.0731714100
   12        0.0000000000
   13        0.0000000000
   14        9.0157885900
   15        0.0000000000
   16       -0.0000000000
   17       -0.5586866500
   18       -0.0000000000
   19        0.0000000000
   20        0.1516259500
   21        0.0000000000
   22       -0.0000000000
   23       -0.0273911200
   24       -0.0207680700
   25       -0.0207680700
   26        0.0000000000
   27        0.0000000000
   28        0.0000000000
   29        1.7076352500
   30       -0.0142438900
   31       -0.0142438900
   32        0.0000000000
   33       -0.0000000000
   34       -0.0000000000
   35        0.1268076900
   36       -2.1284551700
   37        0.8787810100
   38       -1.6658278700
   39        1.0882223200
   40       -0.0935114600
   41        0.1117696400
   42       -0.0627315500
   43        0.0001297800
   44       -0.0005795800
   45        0.0731714100
   46       -0.0000000000
   47       -0.0000000000
   48       -9.0157885900
   49       -0.0000000000
   50        0.0000000000
   51        0.5586866500
   52        0.0000000000
   53       -0.0000000000
   54       -0.1516259500
   55       -0.0000000000
   56        0.0000000000
   57       -0.0273911200
   58       -0.0207680700
   59       -0.0207680700
   60        0.0000000000
   61        0.0000000000
   62       -0.0000000000
   63        1.7076352500
   64       -0.0142438900
   65       -0.0142438900
   66        0.0000000000
   67       -0.0000000000
   68        0.0000000000
 Ene=          0.01474950
 Spin= Alpha
 Occup=        0.00000000
    1       -0.0000000000
    2       -0.0000000000
    3       -0.0000000000
    4       -0.0000000000
    5        0.0000000000
    6        0.0000000000
    7        0.0000000000
    8       -0.0000000000
    9       -0.0000000000
   10       -0.0000000000
   11       -0.0000000000
   12        0.8770970500
   13       -0.4754952400
   14        0.0000000000
   15       16.7996781700
   16       -9.1075063900
   17       -0.0000000000
   18       -2.9335038800
   19        1.5903224500
   20        0.0000000000
   21        1.7581432100
   22       -0.9531313900
   23       -0.0000000000
   24        0.0000000000
   25        0.0000000000
   26        0.0840284700
   27       -0.0455538400
   28       -0.0000000000
   29        0.0000000000
   30        0.0000000000
   31        0.0000000000
   32        1.7743243400
   33       -0.9619035600
   34        0.0000000000
   35        0.0000000000
   36       -0.0000000000
   37        0.0000000000
   38        0.0000000000
   39       -0.0000000000
   40        0.0000000000
   41       -0.0000000000
   42        0.0000000000
   43        0.0000000000
   44        0.0000000000
   45        0.0000000000
   46       -0.8770970500
   47        0.4754952400
   48       -0.0000000000
   49      -16.7996781700
   50        9.1075063900
   51       -0.0000000000
   52        2.9335038800
   53       -1.5903224500
   54       -0.0000000000
   55       -1.7581432100
   56        0.9531313900
   57       -0.0000000000
   58       -0.0000000000
   59       -0.0000000000
   60        0.0840284700
   61       -0.0455538400
   62        0.0000000000
   63        0.0000000000
   64       -0.0000000000
   65       -0.0000000000
   66        1.7743243400
   67       -0.9619035600
   68       -0.0000000000
 Ene=          0.01474950
 Spin= Alpha
 Occup=        0.00000000
    1       -0.0000000000
    2       -0.0000000000
    3       -0.0000000000
    4       -0.0000000000
    5        0.0000000000
    6        0.0000000000
    7        0.0000000000
    8       -0.0000000000
    9       -0.0000000000
   10       -0.0000000000
   11       -0.0000000000
   12       -0.4754952400
   13       -0.8770970500
   14        0.0000000000
   15       -9.1075063900
   16      -16.7996781700
   17       -0.0000000000
   18        1.5903224500
   19        2.9335038800
   20        0.0000000000
   21       -0.9531313900
   22       -1.7581432100
   23       -0.0000000000
   24        0.0000000000
   25        0.0000000000
   26       -0.0455538400
   27       -0.0840284700
   28       -0.0000000000
   29        0.0000000000
   30        0.0000000000
   31        0.0000000000
   32       -0.9619035600
   33       -1.7743243400
   34        0.0000000000
   35        0.0000000000
   36        0.0000000000
   37        0.0000000000
   38        0.0000000000
   39       -0.0000000000
   40        0.0000000000
   41       -0.0000000000
   42        0.0000000000
   43        0.0000000000
   44        0.0000000000
   45        0.0000000000
   46        0.4754952400
   47        0.8770970500
   48       -0.0000000000
   49        9.1075063900
   50       16.7996781700
   51       -0.0000000000
   52       -1.5903224500
   53       -2.9335038800
   54       -0.0000000000
   55        0.9531313900
   56        1.7581432100
   57       -0.0000000000
   58       -0.0000000000
   59       -0.0000000000
   60       -0.0455538400
   61       -0.0840284700
   62        0.0000000000
   63        0.0000000000
   64       -0.0000000000
   65       -0.0000000000
   66       -0.9619035600
   67       -1.7743243400
   68       -0.0000000000
 Ene=          0.01484880
 Spin= Alpha
 Occup=        0.00000000
    1       -0.6156226800
    2       -5.0338188200
    3        1.4140463900
    4        0.0049134400
    5       -0.5862794500
    6        0.0555805900
    7       -0.0444023600
    8        0.0231448000
    9       -0.0005409500
   10        0.0002853600
   11       -0.2732941000
   12        0.0000000000
   13        0.0000000000
   14       18.1427784600
   15        0.0000000000
   16       -0.0000000000