[Molden Format]
[Title]
 Molden2AIM, Version 3.1.0 (02/25/2015)           Time: Thu Oct 17 19:53:33 2024

[Atoms] AU
E+       1       4     0.00000000     0.00000000     0.00000000
E+       2       4    21.20000000     0.00000000     0.00000000
[GTO]
    1 0
 S   1 1.0
    0.1000000000D-03      0.1000000000D+01
 S   1 1.0
    0.3000000000D-03      0.1000000000D+01
 S   1 1.0
    0.9000000000D-03      0.1000000000D+01
 S   1 1.0
    0.2700000000D-02      0.1000000000D+01
 S   1 1.0
    0.8100000000D-02      0.1000000000D+01
 S   1 1.0
    0.2430000000D-01      0.1000000000D+01
 S   1 1.0
    0.7290000000D-01      0.1000000000D+01
 S   1 1.0
    0.2187000000D+00      0.1000000000D+01
 S   1 1.0
    0.6561000000D+00      0.1000000000D+01
 S   1 1.0
    0.1968300000D+01      0.1000000000D+01
 P   1 1.0
    0.1000000000D-03      0.1000000000D+01
 P   1 1.0
    0.3000000000D-03      0.1000000000D+01
 P   1 1.0
    0.9000000000D-03      0.1000000000D+01
 P   1 1.0
    0.2700000000D-02      0.1000000000D+01
 D   1 1.0
    0.1000000000D-03      0.1000000000D+01
 D   1 1.0
    0.3000000000D-03      0.1000000000D+01

    2 0
 S   1 1.0
    0.1000000000D-03      0.1000000000D+01
 S   1 1.0
    0.3000000000D-03      0.1000000000D+01
 S   1 1.0
    0.9000000000D-03      0.1000000000D+01
 S   1 1.0
    0.2700000000D-02      0.1000000000D+01
 S   1 1.0
    0.8100000000D-02      0.1000000000D+01
 S   1 1.0
    0.2430000000D-01      0.1000000000D+01
 S   1 1.0
    0.7290000000D-01      0.1000000000D+01
 S   1 1.0
    0.2187000000D+00      0.1000000000D+01
 S   1 1.0
    0.6561000000D+00      0.1000000000D+01
 S   1 1.0
    0.1968300000D+01      0.1000000000D+01
 P   1 1.0
    0.1000000000D-03      0.1000000000D+01
 P   1 1.0
    0.3000000000D-03      0.1000000000D+01
 P   1 1.0
    0.9000000000D-03      0.1000000000D+01
 P   1 1.0
    0.2700000000D-02      0.1000000000D+01
 D   1 1.0
    0.1000000000D-03      0.1000000000D+01
 D   1 1.0
    0.3000000000D-03      0.1000000000D+01


[MO]
 Ene=         -0.00405300
 Spin= Alpha
 Occup=        1.00000000
    1       -0.0522541600
    2        0.0556389000
    3       -0.0393305000
    4       -0.2277272300
    5       -0.2161335800
    6       -0.1890012900
    7       -0.1121472300
    8        0.0918617300
    9        0.0064231400
   10       -0.0001110300
   11        0.2599579600
   12        0.0000000000
   13        0.0000000000
   14       -0.1189103500
   15        0.0000000000
   16        0.0000000000
   17        0.0084843200
   18        0.0000000000
   19        0.0000000000
   20       -0.0208677900
   21       -0.0000000000
   22       -0.0000000000
   23        0.0480999800
   24       -0.0004158200
   25       -0.0004158200
   26        0.0000000000
   27        0.0000000000
   28       -0.0000000000
   29       -0.0404393600
   30       -0.0032398500
   31       -0.0032398500
   32        0.0000000000
   33        0.0000000000
   34        0.0000000000
   35       -0.0522541600
   36        0.0556389000
   37       -0.0393305000
   38       -0.2277272300
   39       -0.2161335800
   40       -0.1890012900
   41       -0.1121472300
   42        0.0918617300
   43        0.0064231400
   44       -0.0001110300
   45       -0.2599579600
   46       -0.0000000000
   47       -0.0000000000
   48        0.1189103500
   49       -0.0000000000
   50       -0.0000000000
   51       -0.0084843200
   52       -0.0000000000
   53       -0.0000000000
   54        0.0208677900
   55        0.0000000000
   56       -0.0000000000
   57        0.0480999800
   58       -0.0004158200
   59       -0.0004158200
   60        0.0000000000
   61        0.0000000000
   62       -0.0000000000
   63       -0.0404393600
   64       -0.0032398500
   65       -0.0032398500
   66        0.0000000000
   67        0.0000000000
   68       -0.0000000000
 Ene=         -0.00112818
 Spin= Alpha
 Occup=        0.00000000
    1        0.0008063300
    2       -0.0011126800
    3       -0.6304794500
    4       -0.3053573100
    5       -0.2608449600
    6       -0.2119909500
    7       -0.1182473500
    8        0.0979264200
    9        0.0070928800
   10       -0.0001496700
   11       -0.0069150500
   12       -0.0000000000
   13       -0.0000000000
   14        0.0034835400
   15        0.0000000000
   16        0.0000000000
   17       -0.1789404600
   18       -0.0000000000
   19       -0.0000000000
   20        0.0727553200
   21        0.0000000000
   22        0.0000000000
   23       -0.0069687100
   24       -0.0170683900
   25       -0.0170683900
   26       -0.0000000000
   27       -0.0000000000
   28        0.0000000000
   29       -0.0217587300
   30       -0.0055525500
   31       -0.0055525500
   32        0.0000000000
   33        0.0000000000
   34       -0.0000000000
   35       -0.0008063300
   36        0.0011126800
   37        0.6304794500
   38        0.3053573100
   39        0.2608449600
   40        0.2119909500
   41        0.1182473500
   42       -0.0979264200
   43       -0.0070928800
   44        0.0001496700
   45       -0.0069150500
   46        0.0000000000
   47        0.0000000000
   48        0.0034835400
   49       -0.0000000000
   50       -0.0000000000
   51       -0.1789404600
   52        0.0000000000
   53        0.0000000000
   54        0.0727553200
   55       -0.0000000000
   56       -0.0000000000
   57        0.0069687100
   58        0.0170683900
   59        0.0170683900
   60       -0.0000000000
   61       -0.0000000000
   62       -0.0000000000
   63        0.0217587300
   64        0.0055525500
   65        0.0055525500
   66        0.0000000000
   67        0.0000000000
   68        0.0000000000
 Ene=          0.00343769
 Spin= Alpha
 Occup=        0.00000000
    1        0.9154191600
    2       -0.1582356400
    3       -1.1535554500
    4        0.8368666600
    5       -0.0595049700
    6        0.1180146800
    7        0.0250505500
    8       -0.0282752800
    9       -0.0033411400
   10        0.0002262200
   11       -3.6728098300
   12        0.0000000000
   13       -0.0000000000
   14        1.2513005500
   15       -0.0000000000
   16       -0.0000000000
   17       -0.4510840500
   18        0.0000000000
   19        0.0000000000
   20        0.1001174300
   21       -0.0000000000
   22       -0.0000000000
   23       -0.6985445700
   24       -0.0191102800
   25       -0.0191102800
   26        0.0000000000
   27       -0.0000000000
   28       -0.0000000000
   29        0.2862780100
   30       -0.0789309600
   31       -0.0789309600
   32       -0.0000000000
   33       -0.0000000000
   34       -0.0000000000
   35        0.9154191600
   36       -0.1582356400
   37       -1.1535554500
   38        0.8368666600
   39       -0.0595049700
   40        0.1180146800
   41        0.0250505500
   42       -0.0282752800
   43       -0.0033411400
   44        0.0002262200
   45        3.6728098300
   46       -0.0000000000
   47        0.0000000000
   48       -1.2513005500
   49        0.0000000000
   50        0.0000000000
   51        0.4510840500
   52       -0.0000000000
   53       -0.0000000000
   54       -0.1001174300
   55        0.0000000000
   56        0.0000000000
   57       -0.6985445700
   58       -0.0191102800
   59       -0.0191102800
   60        0.0000000000
   61       -0.0000000000
   62        0.0000000000
   63        0.2862780100
   64       -0.0789309600
   65       -0.0789309600
   66       -0.0000000000
   67       -0.0000000000
   68       -0.0000000000
 Ene=          0.00406610
 Spin= Alpha
 Occup=        0.00000000
    1       -0.0000000000
    2        0.0000000000
    3       -0.0000000000
    4        0.0000000000
    5       -0.0000000000
    6        0.0000000000
    7        0.0000000000
    8       -0.0000000000
    9        0.0000000000
   10       -0.0000000000
   11        0.0000000000
   12        0.0296172600
   13       -0.0026158400
   14       -0.0000000000
   15       -0.1162406100
   16        0.0102665500
   17       -0.0000000000
   18        0.4902285500
   19       -0.0432977300
   20        0.0000000000
   21        0.1368358700
   22       -0.0120855500
   23        0.0000000000
   24       -0.0000000000
   25       -0.0000000000
   26        0.0522003600
   27       -0.0046104100
   28       -0.0000000000
   29       -0.0000000000
   30        0.0000000000
   31       -0.0000000000
   32       -0.0113556600
   33        0.0010029500
   34       -0.0000000000
   35       -0.0000000000
   36        0.0000000000
   37        0.0000000000
   38       -0.0000000000
   39        0.0000000000
   40       -0.0000000000
   41        0.0000000000
   42       -0.0000000000
   43        0.0000000000
   44       -0.0000000000
   45       -0.0000000000
   46        0.0296172600
   47       -0.0026158400
   48        0.0000000000
   49       -0.1162406100
   50        0.0102665500
   51       -0.0000000000
   52        0.4902285500
   53       -0.0432977300
   54        0.0000000000
   55        0.1368358700
   56       -0.0120855500
   57        0.0000000000
   58       -0.0000000000
   59       -0.0000000000
   60       -0.0522003600
   61        0.0046104100
   62       -0.0000000000
   63       -0.0000000000
   64       -0.0000000000
   65       -0.0000000000
   66        0.0113556600
   67       -0.0010029500
   68        0.0000000000
 Ene=          0.00406610
 Spin= Alpha
 Occup=        0.00000000
    1       -0.0000000000
    2       -0.0000000000
    3        0.0000000000
    4       -0.0000000000
    5        0.0000000000
    6       -0.0000000000
    7        0.0000000000
    8        0.0000000000
    9       -0.0000000000
   10        0.0000000000
   11        0.0000000000
   12       -0.0026158400
   13       -0.0296172600
   14        0.0000000000
   15        0.0102665500
   16        0.1162406100
   17        0.0000000000
   18       -0.0432977300
   19       -0.4902285500
   20        0.0000000000
   21       -0.0120855500
   22       -0.1368358700
   23        0.0000000000
   24        0.0000000000
   25        0.0000000000
   26       -0.0046104100
   27       -0.0522003600
   28        0.0000000000
   29        0.0000000000
   30       -0.0000000000
   31       -0.0000000000
   32        0.0010029500
   33        0.0113556600
   34       -0.0000000000
   35       -0.0000000000
   36       -0.0000000000
   37       -0.0000000000
   38        0.0000000000
   39       -0.0000000000
   40        0.0000000000
   41       -0.0000000000
   42        0.0000000000
   43       -0.0000000000
   44        0.0000000000
   45       -0.0000000000
   46       -0.0026158400
   47       -0.0296172600
   48       -0.0000000000
   49        0.0102665500
   50        0.1162406100
   51        0.0000000000
   52       -0.0432977300
   53       -0.4902285500
   54       -0.0000000000
   55       -0.0120855500
   56       -0.1368358700
   57        0.0000000000
   58        0.0000000000
   59       -0.0000000000
   60        0.0046104100
   61        0.0522003600
   62       -0.0000000000
   63        0.0000000000
   64        0.0000000000
   65        0.0000000000
   66       -0.0010029500
   67       -0.0113556600
   68        0.0000000000
 Ene=          0.00579269
 Spin= Alpha
 Occup=        0.00000000
    1       -0.0145727400
    2       -0.0038169500
    3        7.0149768500
    4       -0.5429342400
    5       -0.3136245000
    6       -0.0724004800
    7       -0.0735547700
    8        0.0542600500
    9        0.0028506700
   10        0.0000769100
   11        0.1235771600
   12       -0.0000000000
   13       -0.0000000000
   14        0.0288053700
   15        0.0000000000
   16        0.0000000000
   17        1.7119769000
   18        0.0000000000
   19       -0.0000000000
   20       -0.2479364700
   21        0.0000000000
   22       -0.0000000000
   23        0.1743384500
   24        0.2607598500
   25        0.2607598500
   26       -0.0000000000
   27       -0.0000000000
   28        0.0000000000
   29        0.4189148100
   30        0.2691029500
   31        0.2691029500
   32       -0.0000000000
   33        0.0000000000
   34        0.0000000000
   35        0.0145727400
   36        0.0038169500
   37       -7.0149768500
   38        0.5429342400
   39        0.3136245000
   40        0.0724004800
   41        0.0735547700
   42       -0.0542600500
   43       -0.0028506700
   44       -0.0000769100
   45        0.1235771600
   46        0.0000000000
   47        0.0000000000
   48        0.0288053700
   49       -0.0000000000
   50       -0.0000000000
   51        1.7119769000
   52       -0.0000000000
   53        0.0000000000
   54       -0.2479364700
   55       -0.0000000000
   56        0.0000000000
   57       -0.1743384500
   58       -0.2607598500
   59       -0.2607598500
   60       -0.0000000000
   61       -0.0000000000
   62       -0.0000000000
   63       -0.4189148100
   64       -0.2691029500
   65       -0.2691029500
   66        0.0000000000
   67        0.0000000000
   68        0.0000000000
 Ene=          0.00676037
 Spin= Alpha
 Occup=        0.00000000
    1       -1.5035887700
    2        0.9599437100
    3        0.0370110500
    4       -0.8089712500
    5        0.2708400800
    6       -0.0421588500
    7        0.0262372600
    8       -0.0127323000
    9        0.0005525100
   10       -0.0001924000
   11        7.8087952300
   12       -0.0000000000
   13        0.0000000000
   14       -2.2163438400
   15        0.0000000000
   16        0.0000000000
   17        0.6505137500
   18       -0.0000000000
   19       -0.0000000000
   20        0.5324201700
   21       -0.0000000000
   22       -0.0000000000
   23        1.4248759900
   24       -0.0223570500
   25       -0.0223570500
   26       -0.0000000000
   27        0.0000000000
   28        0.0000000000
   29       -0.7425900600
   30       -0.0936020300
   31       -0.0936020300
   32        0.0000000000
   33        0.0000000000
   34        0.0000000000
   35       -1.5035887700
   36        0.9599437100
   37        0.0370110500
   38       -0.8089712500
   39        0.2708400800
   40       -0.0421588500
   41        0.0262372600
   42       -0.0127323000
   43        0.0005525100
   44       -0.0001924000
   45       -7.8087952300
   46        0.0000000000
   47       -0.0000000000
   48        2.2163438400
   49       -0.0000000000
   50       -0.0000000000
   51       -0.6505137500
   52        0.0000000000
   53        0.0000000000
   54       -0.5324201700
   55        0.0000000000
   56        0.0000000000
   57        1.4248759900
   58       -0.0223570500
   59       -0.0223570500
   60       -0.0000000000
   61        0.0000000000
   62       -0.0000000000
   63       -0.7425900600
   64       -0.0936020300
   65       -0.0936020300
   66        0.0000000000
   67        0.0000000000
   68        0.0000000000
 Ene=          0.00707974
 Spin= Alpha
 Occup=        0.00000000
    1        0.0000000000
    2        0.0000000000
    3       -0.0000000000
    4       -0.0000000000
    5       -0.0000000000
    6       -0.0000000000
    7       -0.0000000000
    8        0.0000000000
    9        0.0000000000
   10       -0.0000000000
   11       -0.0000000000
   12       -0.6058952400
   13       16.7460234200
   14        0.0000000000
   15        0.1349180800
   16       -3.7289305100
   17       -0.0000000000
   18       -0.0349835400
   19        0.9668918200
   20        0.0000000000
   21       -0.0226348100
   22        0.6255917100
   23       -0.0000000000
   24        0.0000000000
   25        0.0000000000
   26       -0.0641262000
   27        1.7723506900
   28        0.0000000000
   29        0.0000000000
   30        0.0000000000
   31        0.0000000000
   32        0.0223971600
   33       -0.6190234900
   34       -0.0000000000
   35       -0.0000000000
   36       -0.0000000000
   37        0.0000000000
   38       -0.0000000000
   39        0.0000000000
   40       -0.0000000000
   41        0.0000000000
   42       -0.0000000000
   43       -0.0000000000
   44        0.0000000000
   45        0.0000000000
   46        0.6058952400
   47      -16.7460234200
   48        0.0000000000
   49       -0.1349180800
   50        3.7289305100
   51       -0.0000000000
   52        0.0349835400
   53       -0.9668918200
   54       -0.0000000000
   55        0.0226348100
   56       -0.6255917100
   57       -0.0000000000
   58       -0.0000000000
   59       -0.0000000000
   60       -0.0641262000
   61        1.7723506900
   62       -0.0000000000
   63       -0.0000000000
   64       -0.0000000000
   65       -0.0000000000
   66        0.0223971600
   67       -0.6190234900
   68        0.0000000000
 Ene=          0.00707974
 Spin= Alpha
 Occup=        0.00000000
    1        0.0000000000
    2       -0.0000000000
    3        0.0000000000
    4       -0.0000000000
    5        0.0000000000
    6       -0.0000000000
    7        0.0000000000
    8       -0.0000000000
    9        0.0000000000
   10       -0.0000000000
   11       -0.0000000000
   12       16.7460234200
   13        0.6058952400
   14       -0.0000000000
   15       -3.7289305100
   16       -0.1349180800
   17        0.0000000000
   18        0.9668918200
   19        0.0349835400
   20        0.0000000000
   21        0.6255917100
   22        0.0226348100
   23       -0.0000000000
   24       -0.0000000000
   25       -0.0000000000
   26        1.7723506900
   27        0.0641262000
   28        0.0000000000
   29       -0.0000000000
   30        0.0000000000
   31        0.0000000000
   32       -0.6190234900
   33       -0.0223971600
   34       -0.0000000000
   35       -0.0000000000
   36        0.0000000000
   37       -0.0000000000
   38       -0.0000000000
   39        0.0000000000
   40       -0.0000000000
   41        0.0000000000
   42       -0.0000000000
   43        0.0000000000
   44       -0.0000000000
   45        0.0000000000
   46      -16.7460234200
   47       -0.6058952400
   48       -0.0000000000
   49        3.7289305100
   50        0.1349180800
   51        0.0000000000
   52       -0.9668918200
   53       -0.0349835400
   54       -0.0000000000
   55       -0.6255917100
   56       -0.0226348100
   57       -0.0000000000
   58        0.0000000000
   59        0.0000000000
   60        1.7723506900
   61        0.0641262000
   62       -0.0000000000
   63        0.0000000000
   64        0.0000000000
   65        0.0000000000
   66       -0.6190234900
   67       -0.0223971600
   68        0.0000000000
 Ene=          0.01036330
 Spin= Alpha
 Occup=        0.00000000
    1        0.0000000000
    2        0.0000000000
    3        0.0000000000
    4        0.0000000000
    5        0.0000000000
    6        0.0000000000
    7        0.0000000000
    8       -0.0000000000
    9        0.0000000000
   10       -0.0000000000
   11       -0.0000000000
   12       -0.0390322200
   13        0.0107129600
   14       -0.0000000000
   15        0.1525843200
   16       -0.0418790000
   17        0.0000000000
   18       -0.7575794700
   19        0.2079287900
   20        0.0000000000
   21        0.8313603400
   22       -0.2281790300
   23       -0.0000000000
   24        0.0000000000
   25        0.0000000000
   26       -0.0537716500
   27        0.0147584200
   28       -0.0000000000
   29        0.0000000000
   30       -0.0000000000
   31       -0.0000000000
   32       -0.0003464400
   33        0.0000950800
   34        0.0000000000
   35        0.0000000000
   36        0.0000000000
   37       -0.0000000000
   38       -0.0000000000
   39       -0.0000000000
   40       -0.0000000000
   41       -0.0000000000
   42        0.0000000000
   43        0.0000000000
   44        0.0000000000
   45        0.0000000000
   46       -0.0390322200
   47        0.0107129600
   48        0.0000000000
   49        0.1525843200
   50       -0.0418790000
   51        0.0000000000
   52       -0.7575794700
   53        0.2079287900
   54        0.0000000000
   55        0.8313603400
   56       -0.2281790300
   57       -0.0000000000
   58       -0.0000000000
   59       -0.0000000000
   60        0.0537716500
   61       -0.0147584200
   62        0.0000000000
   63       -0.0000000000
   64        0.0000000000
   65        0.0000000000
   66        0.0003464400
   67       -0.0000950800
   68       -0.0000000000
 Ene=          0.01036330
 Spin= Alpha
 Occup=        0.00000000
    1       -0.0000000000
    2       -0.0000000000
    3        0.0000000000
    4        0.0000000000
    5        0.0000000000
    6        0.0000000000
    7        0.0000000000
    8       -0.0000000000
    9        0.0000000000
   10       -0.0000000000
   11        0.0000000000
   12       -0.0107129600
   13       -0.0390322200
   14        0.0000000000
   15        0.0418790000
   16        0.1525843200
   17        0.0000000000
   18       -0.2079287900
   19       -0.7575794700
   20        0.0000000000
   21        0.2281790300
   22        0.8313603400
   23        0.0000000000
   24        0.0000000000
   25        0.0000000000
   26       -0.0147584200
   27       -0.0537716500
   28        0.0000000000
   29        0.0000000000
   30       -0.0000000000
   31       -0.0000000000
   32       -0.0000950800
   33       -0.0003464400
   34       -0.0000000000
   35       -0.0000000000
   36       -0.0000000000
   37       -0.0000000000
   38       -0.0000000000
   39        0.0000000000
   40       -0.0000000000
   41       -0.0000000000
   42        0.0000000000
   43       -0.0000000000
   44        0.0000000000
   45       -0.0000000000
   46       -0.0107129600
   47       -0.0390322200
   48       -0.0000000000
   49        0.0418790000
   50        0.1525843200
   51        0.0000000000
   52       -0.2079287900
   53       -0.7575794700
   54        0.0000000000
   55        0.2281790300
   56        0.8313603400
   57        0.0000000000
   58       -0.0000000000
   59       -0.0000000000
   60        0.0147584200
   61        0.0537716500
   62       -0.0000000000
   63       -0.0000000000
   64       -0.0000000000
   65       -0.0000000000
   66        0.0000950800
   67        0.0003464400
   68        0.0000000000
 Ene=          0.01053560
 Spin= Alpha
 Occup=        0.00000000
    1       -0.0062845700
    2        0.0428062700
    3       14.2219933700
    4        1.4392984700
    5        0.0216656600
    6        0.0444263300
    7        0.0169922000
    8       -0.0154587800
    9       -0.0013837700
   10        0.0000586000
   11        0.0547888600
   12        0.0000000000
   13       -0.0000000000
   14       -0.1320010500
   15        0.0000000000
   16        0.0000000000
   17        4.2634350900
   18        0.0000000000
   19       -0.0000000000
   20        2.2019397900
   21       -0.0000000000
   22        0.0000000000
   23       -0.0156659900
   24        0.1971335200
   25        0.1971335200
   26        0.0000000000
   27       -0.0000000000
   28        0.0000000000
   29        0.1515021300
   30       -0.1717295800
   31       -0.1717295800
   32        0.0000000000
   33        0.0000000000
   34        0.0000000000
   35        0.0062845700
   36       -0.0428062700
   37      -14.2219933700
   38       -1.4392984700
   39       -0.0216656600
   40       -0.0444263300
   41       -0.0169922000
   42        0.0154587800
   43        0.0013837700
   44       -0.0000586000
   45        0.0547888600
   46       -0.0000000000
   47        0.0000000000
   48       -0.1320010500
   49       -0.0000000000
   50       -0.0000000000
   51        4.2634350900
   52        0.0000000000
   53        0.0000000000
   54        2.2019397900
   55       -0.0000000000
   56       -0.0000000000
   57        0.0156659900
   58       -0.1971335200
   59       -0.1971335200
   60        0.0000000000
   61       -0.0000000000
   62       -0.0000000000
   63       -0.1515021300
   64        0.1717295800
   65        0.1717295800
   66        0.0000000000
   67        0.0000000000
   68       -0.0000000000
 Ene=          0.01322890
 Spin= Alpha
 Occup=        0.00000000
    1       -0.5423998900
    2        0.4661203500
    3        0.1108056200
    4       -1.5695623500
    5        1.3036404600
    6       -0.0912738500
    7        0.1415896400
    8       -0.0809934800
    9       -0.0000397800
   10       -0.0007213200
   11        4.7367418900
   12       -0.0000000000
   13        0.0000000000
   14       -0.2779369000
   15        0.0000000000
   16        0.0000000000
   17        0.5404502200
   18       -0.0000000000
   19        0.0000000000
   20       -0.3473450800
   21        0.0000000000
   22       -0.0000000000
   23        0.8055975400
   24       -0.0680621200
   25       -0.0680621200
   26       -0.0000000000
   27        0.0000000000
   28        0.0000000000
   29       -0.2638516700
   30       -0.2228769600
   31       -0.2228769600
   32        0.0000000000
   33        0.0000000000
   34        0.0000000000
   35       -0.5423998900
   36        0.4661203500
   37        0.1108056200
   38       -1.5695623500
   39        1.3036404600
   40       -0.0912738500
   41        0.1415896400
   42       -0.0809934800
   43       -0.0000397800
   44       -0.0007213200
   45       -4.7367418900
   46        0.0000000000
   47       -0.0000000000
   48        0.2779369000
   49       -0.0000000000
   50       -0.0000000000
   51       -0.5404502200
   52        0.0000000000
   53       -0.0000000000
   54        0.3473450800
   55       -0.0000000000
   56        0.0000000000
   57        0.8055975400
   58       -0.0680621200
   59       -0.0680621200
   60       -0.0000000000
   61        0.0000000000
   62       -0.0000000000
   63       -0.2638516700
   64       -0.2228769600
   65       -0.2228769600
   66        0.0000000000
   67        0.0000000000
   68       -0.0000000000
 Ene=          0.01554280
 Spin= Alpha
 Occup=        0.00000000
    1        0.0000000000
    2        0.0000000000
    3       -0.0000000000
    4        0.0000000000
    5       -0.0000000000
    6        0.0000000000
    7       -0.0000000000
    8        0.0000000000
    9       -0.0000000000
   10        0.0000000000
   11        0.0000000000
   12      -13.1723441500
   13       31.0084270600
   14        0.0000000000
   15        2.7825297200
   16       -6.5502289400
   17        0.0000000000
   18       -0.9442219600
   19        2.2227507400
   20        0.0000000000
   21        0.4973860000
   22       -1.1708741700
   23        0.0000000000
   24        0.0000000000
   25       -0.0000000000
   26       -1.3935470100
   27        3.2804867700
   28        0.0000000000
   29        0.0000000000
   30       -0.0000000000
   31       -0.0000000000
   32        0.4559948400
   33       -1.0734371000
   34       -0.0000000000
   35       -0.0000000000
   36       -0.0000000000
   37        0.0000000000
   38       -0.0000000000
   39        0.0000000000
   40       -0.0000000000
   41        0.0000000000
   42       -0.0000000000
   43        0.0000000000
   44       -0.0000000000
   45       -0.0000000000
   46       13.1723441500
   47      -31.0084270600
   48        0.0000000000
   49       -2.7825297200
   50        6.5502289400
   51        0.0000000000
   52        0.9442219600
   53       -2.2227507400
   54        0.0000000000
   55       -0.4973860000
   56        1.1708741700
   57        0.0000000000
   58       -0.0000000000
   59        0.0000000000
   60       -1.3935470100
   61        3.2804867700
   62       -0.0000000000
   63       -0.0000000000
   64        0.0000000000
   65        0.0000000000
   66        0.4559948400
   67       -1.0734371000
   68        0.0000000000
 Ene=          0.01554280
 Spin= Alpha
 Occup=        0.00000000
    1        0.0000000000
    2       -0.0000000000
    3        0.0000000000
    4       -0.0000000000
    5        0.0000000000
    6       -0.0000000000
    7        0.0000000000
    8       -0.0000000000
    9        0.0000000000
   10       -0.0000000000
   11       -0.0000000000
   12       31.0084270500
   13       13.1723441400
   14       -0.0000000000
   15       -6.5502289400
   16       -2.7825297200
   17       -0.0000000000
   18        2.2227507400
   19        0.9442219600
   20        0.0000000000
   21       -1.1708741700
   22       -0.4973860000
   23       -0.0000000000
   24        0.0000000000
   25        0.0000000000
   26        3.2804867700
   27        1.3935470100
   28        0.0000000000
   29       -0.0000000000
   30        0.0000000000
   31        0.0000000000
   32       -1.0734371000
   33       -0.4559948400
   34       -0.0000000000
   35       -0.0000000000
   36        0.0000000000
   37        0.0000000000
   38       -0.0000000000
   39        0.0000000000
   40       -0.0000000000
   41        0.0000000000
   42       -0.0000000000
   43       -0.0000000000
   44       -0.0000000000
   45        0.0000000000
   46      -31.0084270500
   47      -13.1723441400
   48       -0.0000000000
   49        6.5502289400
   50        2.7825297200
   51        0.0000000000
   52       -2.2227507400
   53       -0.9442219600
   54       -0.0000000000
   55        1.1708741700
   56        0.4973860000
   57       -0.0000000000
   58        0.0000000000
   59        0.0000000000
   60        3.2804867700
   61        1.3935470100
   62       -0.0000000000
   63        0.0000000000
   64        0.0000000000
   65        0.0000000000
   66       -1.0734371000
   67       -0.4559948400
   68        0.0000000000
 Ene=          0.01562700
 Spin= Alpha
 Occup=        0.00000000
    1        0.0165703600
    2        0.0578479500
    3        0.2842761000
    4        3.6079518000
    5       -1.2886046400
    6        0.1091020000
    7       -0.1208771400
    8        0.0661404000
    9       -0.0006054500
   10        0.0006804800
   11       -0.1381997300
   12        0.0000000000
   13        0.0000000000
   14       -0.2419597000
   15       -0.0000000000
   16        0.0000000000