[Molden Format]
[Title]
 Molden2AIM, Version 3.1.0 (02/25/2015)           Time: Thu Oct 17 19:55:00 2024

[Atoms] AU
E+       1       4     0.00000000     0.00000000     0.00000000
E+       2       4    40.20000000     0.00000000     0.00000000
[GTO]
    1 0
 S   1 1.0
    0.1000000000D-03      0.1000000000D+01
 S   1 1.0
    0.3000000000D-03      0.1000000000D+01
 S   1 1.0
    0.9000000000D-03      0.1000000000D+01
 S   1 1.0
    0.2700000000D-02      0.1000000000D+01
 S   1 1.0
    0.8100000000D-02      0.1000000000D+01
 S   1 1.0
    0.2430000000D-01      0.1000000000D+01
 S   1 1.0
    0.7290000000D-01      0.1000000000D+01
 S   1 1.0
    0.2187000000D+00      0.1000000000D+01
 S   1 1.0
    0.6561000000D+00      0.1000000000D+01
 S   1 1.0
    0.1968300000D+01      0.1000000000D+01
 P   1 1.0
    0.1000000000D-03      0.1000000000D+01
 P   1 1.0
    0.3000000000D-03      0.1000000000D+01
 P   1 1.0
    0.9000000000D-03      0.1000000000D+01
 P   1 1.0
    0.2700000000D-02      0.1000000000D+01
 D   1 1.0
    0.1000000000D-03      0.1000000000D+01
 D   1 1.0
    0.3000000000D-03      0.1000000000D+01

    2 0
 S   1 1.0
    0.1000000000D-03      0.1000000000D+01
 S   1 1.0
    0.3000000000D-03      0.1000000000D+01
 S   1 1.0
    0.9000000000D-03      0.1000000000D+01
 S   1 1.0
    0.2700000000D-02      0.1000000000D+01
 S   1 1.0
    0.8100000000D-02      0.1000000000D+01
 S   1 1.0
    0.2430000000D-01      0.1000000000D+01
 S   1 1.0
    0.7290000000D-01      0.1000000000D+01
 S   1 1.0
    0.2187000000D+00      0.1000000000D+01
 S   1 1.0
    0.6561000000D+00      0.1000000000D+01
 S   1 1.0
    0.1968300000D+01      0.1000000000D+01
 P   1 1.0
    0.1000000000D-03      0.1000000000D+01
 P   1 1.0
    0.3000000000D-03      0.1000000000D+01
 P   1 1.0
    0.9000000000D-03      0.1000000000D+01
 P   1 1.0
    0.2700000000D-02      0.1000000000D+01
 D   1 1.0
    0.1000000000D-03      0.1000000000D+01
 D   1 1.0
    0.3000000000D-03      0.1000000000D+01


[MO]
 Ene=         -0.00360359
 Spin= Alpha
 Occup=        1.00000000
    1        0.0212221700
    2       -0.0078457800
    3       -0.0218231500
    4       -0.1934765800
    5       -0.3028460400
    6       -0.1983246200
    7       -0.1227031000
    8        0.0991645400
    9        0.0067901300
   10       -0.0000958600
   11       -0.0633811800
   12       -0.0000000000
   13       -0.0000000000
   14        0.0175994100
   15        0.0000000000
   16       -0.0000000000
   17       -0.0208997000
   18        0.0000000000
   19        0.0000000000
   20       -0.0492518300
   21       -0.0000000000
   22       -0.0000000000
   23       -0.0217610400
   24        0.0006334800
   25        0.0006334800
   26       -0.0000000000
   27       -0.0000000000
   28        0.0000000000
   29        0.0081040900
   30        0.0020114200
   31        0.0020114200
   32        0.0000000000
   33       -0.0000000000
   34       -0.0000000000
   35        0.0212221700
   36       -0.0078457800
   37       -0.0218231500
   38       -0.1934765800
   39       -0.3028460400
   40       -0.1983246200
   41       -0.1227031000
   42        0.0991645400
   43        0.0067901300
   44       -0.0000958600
   45        0.0633811800
   46        0.0000000000
   47        0.0000000000
   48       -0.0175994100
   49       -0.0000000000
   50       -0.0000000000
   51        0.0208997000
   52        0.0000000000
   53        0.0000000000
   54        0.0492518300
   55       -0.0000000000
   56        0.0000000000
   57       -0.0217610400
   58        0.0006334800
   59        0.0006334800
   60       -0.0000000000
   61       -0.0000000000
   62       -0.0000000000
   63        0.0081040900
   64        0.0020114200
   65        0.0020114200
   66        0.0000000000
   67        0.0000000000
   68       -0.0000000000
 Ene=         -0.00334119
 Spin= Alpha
 Occup=        0.00000000
    1        0.0003152400
    2        0.0006390300
    3       -0.0073493800
    4       -0.2565622800
    5       -0.2870639900
    6       -0.2167076200
    7       -0.1239265800
    8        0.1018874500
    9        0.0072913500
   10       -0.0001433200
   11       -0.0013885900
   12       -0.0000000000
   13       -0.0000000000
   14       -0.0004692300
   15       -0.0000000000
   16        0.0000000000
   17        0.0001312400
   18        0.0000000000
   19        0.0000000000
   20       -0.0808683000
   21       -0.0000000000
   22       -0.0000000000
   23       -0.0012179300
   24       -0.0014827300
   25       -0.0014827300
   26        0.0000000000
   27        0.0000000000
   28        0.0000000000
   29       -0.0026048300
   30       -0.0019268300
   31       -0.0019268300
   32       -0.0000000000
   33       -0.0000000000
   34       -0.0000000000
   35       -0.0003152400
   36       -0.0006390300
   37        0.0073493800
   38        0.2565622800
   39        0.2870639900
   40        0.2167076200
   41        0.1239265800
   42       -0.1018874500
   43       -0.0072913500
   44        0.0001433200
   45       -0.0013885900
   46        0.0000000000
   47        0.0000000000
   48       -0.0004692300
   49       -0.0000000000
   50        0.0000000000
   51        0.0001312400
   52        0.0000000000
   53        0.0000000000
   54       -0.0808683000
   55       -0.0000000000
   56       -0.0000000000
   57        0.0012179300
   58        0.0014827300
   59        0.0014827300
   60       -0.0000000000
   61       -0.0000000000
   62        0.0000000000
   63        0.0026048300
   64        0.0019268300
   65        0.0019268300
   66        0.0000000000
   67        0.0000000000
   68       -0.0000000000
 Ene=          0.00431531
 Spin= Alpha
 Occup=        0.00000000
    1       -0.6439241200
    2       -0.0997933400
    3        0.9837701600
    4       -0.5993775800
    5       -0.0717141600
    6       -0.1166108500
    7       -0.0392020400
    8        0.0369637700
    9        0.0034943900
   10       -0.0001691200
   11        1.1417611900
   12        0.0000000000
   13        0.0000000000
   14       -0.3607801000
   15       -0.0000000000
   16       -0.0000000000
   17        0.4614652600
   18        0.0000000000
   19        0.0000000000
   20       -0.0394355100
   21       -0.0000000000
   22       -0.0000000000
   23        0.4289045200
   24        0.0268967700
   25        0.0268967700
   26        0.0000000000
   27        0.0000000000
   28       -0.0000000000
   29       -0.0386704400
   30        0.0907762400
   31        0.0907762400
   32       -0.0000000000
   33       -0.0000000000
   34        0.0000000000
   35       -0.6439241200
   36       -0.0997933400
   37        0.9837701600
   38       -0.5993775800
   39       -0.0717141600
   40       -0.1166108500
   41       -0.0392020400
   42        0.0369637700
   43        0.0034943900
   44       -0.0001691200
   45       -1.1417611900
   46       -0.0000000000
   47       -0.0000000000
   48        0.3607801000
   49        0.0000000000
   50        0.0000000000
   51       -0.4614652600
   52       -0.0000000000
   53       -0.0000000000
   54        0.0394355100
   55        0.0000000000
   56        0.0000000000
   57        0.4289045200
   58        0.0268967700
   59        0.0268967700
   60        0.0000000000
   61        0.0000000000
   62        0.0000000000
   63       -0.0386704400
   64        0.0907762400
   65        0.0907762400
   66       -0.0000000000
   67       -0.0000000000
   68       -0.0000000000
 Ene=          0.00714449
 Spin= Alpha
 Occup=        0.00000000
    1        0.0000000000
    2        0.0000000000
    3        0.0000000000
    4        0.0000000000
    5        0.0000000000
    6        0.0000000000
    7       -0.0000000000
    8       -0.0000000000
    9        0.0000000000
   10       -0.0000000000
   11       -0.0000000000
   12       -0.0262505800
   13       -0.0134754100
   14       -0.0000000000
   15        0.0774153700
   16        0.0397402400
   17       -0.0000000000
   18       -0.2612247700
   19       -0.1340965500
   20       -0.0000000000
   21       -0.3749536800
   22       -0.1924779000
   23       -0.0000000000
   24        0.0000000000
   25        0.0000000000
   26        0.0149501800
   27        0.0076744900
   28        0.0000000000
   29       -0.0000000000
   30        0.0000000000
   31        0.0000000000
   32       -0.0381220500
   33       -0.0195694900
   34       -0.0000000000
   35        0.0000000000
   36        0.0000000000
   37       -0.0000000000
   38        0.0000000000
   39       -0.0000000000
   40        0.0000000000
   41        0.0000000000
   42       -0.0000000000
   43        0.0000000000
   44       -0.0000000000
   45        0.0000000000
   46       -0.0262505800
   47       -0.0134754100
   48        0.0000000000
   49        0.0774153700
   50        0.0397402400
   51        0.0000000000
   52       -0.2612247700
   53       -0.1340965500
   54       -0.0000000000
   55       -0.3749536800
   56       -0.1924779000
   57       -0.0000000000
   58       -0.0000000000
   59       -0.0000000000
   60       -0.0149501800
   61       -0.0076744900
   62       -0.0000000000
   63       -0.0000000000
   64       -0.0000000000
   65       -0.0000000000
   66        0.0381220500
   67        0.0195694900
   68        0.0000000000
 Ene=          0.00714449
 Spin= Alpha
 Occup=        0.00000000
    1        0.0000000000
    2       -0.0000000000
    3        0.0000000000
    4        0.0000000000
    5       -0.0000000000
    6        0.0000000000
    7       -0.0000000000
    8       -0.0000000000
    9        0.0000000000
   10        0.0000000000
   11       -0.0000000000
   12       -0.0134754100
   13        0.0262505800
   14        0.0000000000
   15        0.0397402400
   16       -0.0774153700
   17       -0.0000000000
   18       -0.1340965500
   19        0.2612247700
   20        0.0000000000
   21       -0.1924779000
   22        0.3749536800
   23       -0.0000000000
   24        0.0000000000
   25        0.0000000000
   26        0.0076744900
   27       -0.0149501800
   28       -0.0000000000
   29        0.0000000000
   30        0.0000000000
   31        0.0000000000
   32       -0.0195694900
   33        0.0381220500
   34        0.0000000000
   35        0.0000000000
   36       -0.0000000000
   37       -0.0000000000
   38        0.0000000000
   39       -0.0000000000
   40        0.0000000000
   41       -0.0000000000
   42        0.0000000000
   43       -0.0000000000
   44        0.0000000000
   45        0.0000000000
   46       -0.0134754100
   47        0.0262505800
   48       -0.0000000000
   49        0.0397402400
   50       -0.0774153700
   51        0.0000000000
   52       -0.1340965500
   53        0.2612247700
   54       -0.0000000000
   55       -0.1924779000
   56        0.3749536800
   57       -0.0000000000
   58       -0.0000000000
   59       -0.0000000000
   60       -0.0076744900
   61        0.0149501800
   62        0.0000000000
   63        0.0000000000
   64        0.0000000000
   65       -0.0000000000
   66        0.0195694900
   67       -0.0381220500
   68       -0.0000000000
 Ene=          0.00943840
 Spin= Alpha
 Occup=        0.00000000
    1        0.0000000000
    2        0.0000000000
    3        0.0000000000
    4        0.0000000000
    5       -0.0000000000
    6       -0.0000000000
    7       -0.0000000000
    8        0.0000000000
    9        0.0000000000
   10       -0.0000000000
   11        0.0000000000
   12        0.0127211300
   13        0.0089530200
   14        0.0000000000
   15       -0.0627713100
   16       -0.0441779300
   17        0.0000000000
   18       -0.0156830200
   19       -0.0110375800
   20        0.0000000000
   21       -0.6057467900
   22       -0.4263196000
   23        0.0000000000
   24        0.0000000000
   25        0.0000000000
   26        0.0050176300
   27        0.0035313700
   28       -0.0000000000
   29        0.0000000000
   30        0.0000000000
   31        0.0000000000
   32       -0.0282300100
   33       -0.0198680500
   34        0.0000000000
   35       -0.0000000000
   36       -0.0000000000
   37       -0.0000000000
   38        0.0000000000
   39       -0.0000000000
   40        0.0000000000
   41       -0.0000000000
   42        0.0000000000
   43       -0.0000000000
   44        0.0000000000
   45        0.0000000000
   46       -0.0127211300
   47       -0.0089530200
   48        0.0000000000
   49        0.0627713100
   50        0.0441779300
   51        0.0000000000
   52        0.0156830200
   53        0.0110375800
   54        0.0000000000
   55        0.6057467900
   56        0.4263196000
   57       -0.0000000000
   58       -0.0000000000
   59       -0.0000000000
   60        0.0050176300
   61        0.0035313700
   62        0.0000000000
   63       -0.0000000000
   64       -0.0000000000
   65       -0.0000000000
   66       -0.0282300100
   67       -0.0198680500
   68       -0.0000000000
 Ene=          0.00943840
 Spin= Alpha
 Occup=        0.00000000
    1       -0.0000000000
    2        0.0000000000
    3        0.0000000000
    4       -0.0000000000
    5        0.0000000000
    6       -0.0000000000
    7        0.0000000000
    8       -0.0000000000
    9       -0.0000000000
   10        0.0000000000
   11        0.0000000000
   12        0.0089530200
   13       -0.0127211300
   14       -0.0000000000
   15       -0.0441779300
   16        0.0627713100
   17        0.0000000000
   18       -0.0110375800
   19        0.0156830200
   20       -0.0000000000
   21       -0.4263196000
   22        0.6057467900
   23        0.0000000000
   24       -0.0000000000
   25       -0.0000000000
   26        0.0035313700
   27       -0.0050176300
   28       -0.0000000000
   29       -0.0000000000
   30       -0.0000000000
   31       -0.0000000000
   32       -0.0198680500
   33        0.0282300100
   34        0.0000000000
   35       -0.0000000000
   36       -0.0000000000
   37        0.0000000000
   38       -0.0000000000
   39        0.0000000000
   40       -0.0000000000
   41        0.0000000000
   42       -0.0000000000
   43       -0.0000000000
   44        0.0000000000
   45       -0.0000000000
   46       -0.0089530200
   47        0.0127211300
   48        0.0000000000
   49        0.0441779300
   50       -0.0627713100
   51       -0.0000000000
   52        0.0110375800
   53       -0.0156830200
   54        0.0000000000
   55        0.4263196000
   56       -0.6057467900
   57        0.0000000000
   58        0.0000000000
   59        0.0000000000
   60        0.0035313700
   61       -0.0050176300
   62        0.0000000000
   63       -0.0000000000
   64        0.0000000000
   65        0.0000000000
   66       -0.0198680500
   67        0.0282300100
   68       -0.0000000000
 Ene=          0.00986745
 Spin= Alpha
 Occup=        0.00000000
    1        0.0325907400
    2        0.0083074300
    3       -2.0529087200
    4       -0.2260414000
    5        0.5722261900
    6        0.0299878400
    7        0.0820925400
    8       -0.0549633900
    9       -0.0018976800
   10       -0.0002233500
   11       -0.1465675600
   12        0.0000000000
   13       -0.0000000000
   14        0.0081510100
   15       -0.0000000000
   16        0.0000000000
   17       -0.7754920400
   18       -0.0000000000
   19       -0.0000000000
   20       -0.3980270800
   21       -0.0000000000
   22        0.0000000000
   23       -0.1114278000
   24       -0.1712565400
   25       -0.1712565400
   26        0.0000000000
   27       -0.0000000000
   28       -0.0000000000
   29       -0.2619677400
   30       -0.1394993800
   31       -0.1394993800
   32       -0.0000000000
   33        0.0000000000
   34        0.0000000000
   35       -0.0325907400
   36       -0.0083074300
   37        2.0529087200
   38        0.2260414000
   39       -0.5722261900
   40       -0.0299878400
   41       -0.0820925400
   42        0.0549633900
   43        0.0018976800
   44        0.0002233500
   45       -0.1465675600
   46       -0.0000000000
   47        0.0000000000
   48        0.0081510100
   49        0.0000000000
   50       -0.0000000000
   51       -0.7754920400
   52       -0.0000000000
   53        0.0000000000
   54       -0.3980270800
   55        0.0000000000
   56       -0.0000000000
   57        0.1114278000
   58        0.1712565400
   59        0.1712565400
   60        0.0000000000
   61       -0.0000000000
   62       -0.0000000000
   63        0.2619677400
   64        0.1394993800
   65        0.1394993800
   66       -0.0000000000
   67        0.0000000000
   68        0.0000000000
 Ene=          0.01013530
 Spin= Alpha
 Occup=        0.00000000
    1       -0.3844395600
    2        0.2741630400
    3        0.5567378300
    4       -1.2498030600
    5        0.6464418600
    6       -0.0531116600
    7        0.0733110700
    8       -0.0410094700
    9        0.0002482000
   10       -0.0004035300
   11        1.4002781500
   12        0.0000000000
   13        0.0000000000
   14       -0.3805486000
   15       -0.0000000000
   16       -0.0000000000
   17        0.5997656100
   18        0.0000000000
   19        0.0000000000
   20       -0.7509827400
   21        0.0000000000
   22       -0.0000000000
   23        0.4695692400
   24       -0.0262173500
   25       -0.0262173500
   26        0.0000000000
   27        0.0000000000
   28       -0.0000000000
   29       -0.2186803200
   30       -0.0901986200
   31       -0.0901986200
   32       -0.0000000000
   33       -0.0000000000
   34        0.0000000000
   35       -0.3844395600
   36        0.2741630400
   37        0.5567378300
   38       -1.2498030600
   39        0.6464418600
   40       -0.0531116600
   41        0.0733110700
   42       -0.0410094700
   43        0.0002482000
   44       -0.0004035300
   45       -1.4002781500
   46       -0.0000000000
   47       -0.0000000000
   48        0.3805486000
   49        0.0000000000
   50        0.0000000000
   51       -0.5997656100
   52       -0.0000000000
   53       -0.0000000000
   54        0.7509827400
   55       -0.0000000000
   56        0.0000000000
   57        0.4695692400
   58       -0.0262173500
   59       -0.0262173500
   60        0.0000000000
   61        0.0000000000
   62        0.0000000000
   63       -0.2186803200
   64       -0.0901986200
   65       -0.0901986200
   66       -0.0000000000
   67       -0.0000000000
   68       -0.0000000000
 Ene=          0.01434080
 Spin= Alpha
 Occup=        0.00000000
    1       -0.0000000000
    2       -0.0000000000
    3       -0.0000000000
    4       -0.0000000000
    5        0.0000000000
    6       -0.0000000000
    7        0.0000000000
    8       -0.0000000000
    9       -0.0000000000
   10       -0.0000000000
   11        0.0000000000
   12        0.0701624200
   13        0.0232441800
   14        0.0000000000
   15       -0.2232100900
   16       -0.0739475000
   17        0.0000000000
   18        0.9340138900
   19        0.3094304300
   20       -0.0000000000
   21       -0.8937814000
   22       -0.2961017700
   23        0.0000000000
   24        0.0000000000
   25       -0.0000000000
   26       -0.0260453000
   27       -0.0086285700
   28       -0.0000000000
   29        0.0000000000
   30       -0.0000000000
   31       -0.0000000000
   32        0.0852594000
   33        0.0282456700
   34        0.0000000000
   35       -0.0000000000
   36       -0.0000000000
   37        0.0000000000
   38       -0.0000000000
   39        0.0000000000
   40        0.0000000000
   41        0.0000000000
   42       -0.0000000000
   43        0.0000000000
   44       -0.0000000000
   45       -0.0000000000
   46        0.0701624200
   47        0.0232441800
   48       -0.0000000000
   49       -0.2232100900
   50       -0.0739475000
   51        0.0000000000
   52        0.9340138900
   53        0.3094304300
   54       -0.0000000000
   55       -0.8937814000
   56       -0.2961017700
   57        0.0000000000
   58       -0.0000000000
   59        0.0000000000
   60        0.0260453000
   61        0.0086285700
   62        0.0000000000
   63        0.0000000000
   64        0.0000000000
   65        0.0000000000
   66       -0.0852594000
   67       -0.0282456700
   68       -0.0000000000
 Ene=          0.01434080
 Spin= Alpha
 Occup=        0.00000000
    1        0.0000000000
    2        0.0000000000
    3       -0.0000000000
    4        0.0000000000
    5       -0.0000000000
    6       -0.0000000000
    7       -0.0000000000
    8        0.0000000000
    9        0.0000000000
   10       -0.0000000000
   11       -0.0000000000
   12        0.0232441800
   13       -0.0701624200
   14        0.0000000000
   15       -0.0739475000
   16        0.2232100900
   17       -0.0000000000
   18        0.3094304300
   19       -0.9340138900
   20       -0.0000000000
   21       -0.2961017700
   22        0.8937814000
   23       -0.0000000000
   24       -0.0000000000
   25        0.0000000000
   26       -0.0086285700
   27        0.0260453000
   28        0.0000000000
   29        0.0000000000
   30        0.0000000000
   31        0.0000000000
   32        0.0282456700
   33       -0.0852594000
   34       -0.0000000000
   35        0.0000000000
   36        0.0000000000
   37       -0.0000000000
   38        0.0000000000
   39       -0.0000000000
   40        0.0000000000
   41       -0.0000000000
   42        0.0000000000
   43       -0.0000000000
   44        0.0000000000
   45        0.0000000000
   46        0.0232441800
   47       -0.0701624200
   48       -0.0000000000
   49       -0.0739475000
   50        0.2232100900
   51        0.0000000000
   52        0.3094304300
   53       -0.9340138900
   54        0.0000000000
   55       -0.2961017700
   56        0.8937814000
   57       -0.0000000000
   58        0.0000000000
   59       -0.0000000000
   60        0.0086285700
   61       -0.0260453000
   62       -0.0000000000
   63       -0.0000000000
   64       -0.0000000000
   65       -0.0000000000
   66       -0.0282456700
   67        0.0852594000
   68        0.0000000000
 Ene=          0.01531330
 Spin= Alpha
 Occup=        0.00000000
    1       -0.1452842600
    2        0.0387533000
    3        0.2617455600
    4       -1.3572049800
    5        0.8140330100
    6        0.0168651100
    7        0.0871418600
    8       -0.0568614400
    9       -0.0017401100
   10       -0.0002660500
   11        0.5175132500
   12        0.0000000000
   13        0.0000000000
   14       -0.0575080800
   15       -0.0000000000
   16       -0.0000000000
   17        0.2393493500
   18       -0.0000000000
   19       -0.0000000000
   20        0.2564082200
   21        0.0000000000
   22        0.0000000000
   23        0.1703392800
   24       -0.0081178700
   25       -0.0081178700
   26        0.0000000000
   27        0.0000000000
   28       -0.0000000000
   29       -0.0194868700
   30       -0.0338366300
   31       -0.0338366300
   32       -0.0000000000
   33       -0.0000000000
   34        0.0000000000
   35       -0.1452842600
   36        0.0387533000
   37        0.2617455600
   38       -1.3572049800
   39        0.8140330100
   40        0.0168651100
   41        0.0871418600
   42       -0.0568614400
   43       -0.0017401100
   44       -0.0002660500
   45       -0.5175132500
   46       -0.0000000000
   47       -0.0000000000
   48        0.0575080800
   49        0.0000000000
   50        0.0000000000
   51       -0.2393493500
   52       -0.0000000000
   53       -0.0000000000
   54       -0.2564082200
   55        0.0000000000
   56        0.0000000000
   57        0.1703392800
   58       -0.0081178700
   59       -0.0081178700
   60        0.0000000000
   61        0.0000000000
   62        0.0000000000
   63       -0.0194868700
   64       -0.0338366300
   65       -0.0338366300
   66       -0.0000000000
   67       -0.0000000000
   68       -0.0000000000
 Ene=          0.01538420
 Spin= Alpha
 Occup=        0.00000000
    1        0.0042240800
    2        0.0597461200
    3        1.1099663500
    4       -0.5665994500
    5        0.2000863500
    6       -0.0627399100
    7        0.0141363200
    8       -0.0026600600
    9        0.0012936200
   10       -0.0002074200
   11       -0.0148023100
   12       -0.0000000000
   13        0.0000000000
   14       -0.1155459000
   15        0.0000000000
   16       -0.0000000000
   17        0.7505179500
   18        0.0000000000
   19        0.0000000000
   20       -0.9733634100
   21       -0.0000000000
   22       -0.0000000000
   23       -0.0522459300
   24        0.0164846600
   25        0.0164846600
   26       -0.0000000000
   27        0.0000000000
   28        0.0000000000
   29       -0.0573196300
   30       -0.1406382600
   31       -0.1406382600
   32       -0.0000000000
   33       -0.0000000000
   34        0.0000000000
   35       -0.0042240800
   36       -0.0597461200
   37       -1.1099663500
   38        0.5665994500
   39       -0.2000863500
   40        0.0627399100
   41       -0.0141363200
   42        0.0026600600
   43       -0.0012936200
   44        0.0002074200
   45       -0.0148023100
   46        0.0000000000
   47       -0.0000000000
   48       -0.1155459000
   49       -0.0000000000
   50        0.0000000000
   51        0.7505179500
   52        0.0000000000
   53        0.0000000000
   54       -0.9733634100
   55       -0.0000000000
   56       -0.0000000000
   57        0.0522459300
   58       -0.0164846600
   59       -0.0164846600
   60       -0.0000000000
   61        0.0000000000
   62       -0.0000000000
   63        0.0573196300
   64        0.1406382600
   65        0.1406382600
   66        0.0000000000
   67       -0.0000000000
   68       -0.0000000000
 Ene=          0.01872950
 Spin= Alpha
 Occup=        0.00000000
    1       -0.0243696400
    2        0.0497259600
    3        3.9218052700
    4       -2.5906357300
    5        1.1110912800
    6       -0.0195310500
    7        0.1010400400
    8       -0.0619396600
    9       -0.0010994600
   10       -0.0004048800
   11        0.1144950300
   12        0.0000000000
   13        0.0000000000
   14       -0.0927345100
   15       -0.0000000000
   16       -0.0000000000
   17        1.7307556400
   18        0.0000000000
   19        0.0000000000
   20       -0.0135614700
   21       -0.0000000000
   22       -0.0000000000
   23        0.0458054300
   24        0.1659366500
   25        0.1659366500
   26        0.0000000000
   27        0.0000000000
   28        0.0000000000
   29        0.1945991800
   30       -0.0022576700
   31       -0.0022576700
   32       -0.0000000000
   33       -0.0000000000
   34       -0.0000000000
   35        0.0243696400
   36       -0.0497259600
   37       -3.9218052700
   38        2.5906357300
   39       -1.1110912800
   40        0.0195310500
   41       -0.1010400400
   42        0.0619396600
   43        0.0010994600
   44        0.0004048800
   45        0.1144950300
   46       -0.0000000000
   47       -0.0000000000
   48       -0.0927345100
   49        0.0000000000
   50        0.0000000000
   51        1.7307556400
   52       -0.0000000000
   53       -0.0000000000
   54       -0.0135614700
   55        0.0000000000
   56        0.0000000000
   57       -0.0458054300
   58       -0.1659366500
   59       -0.1659366500
   60        0.0000000000
   61        0.0000000000
   62       -0.0000000000
   63       -0.1945991800
   64        0.0022576700
   65        0.0022576700
   66       -0.0000000000
   67       -0.0000000000
   68        0.0000000000
 Ene=          0.02085300
 Spin= Alpha
 Occup=        0.00000000
    1       -0.0000000000
    2       -0.0000000000
    3        0.0000000000
    4       -0.0000000000
    5       -0.0000000000
    6        0.0000000000
    7       -0.0000000000
    8       -0.0000000000
    9        0.0000000000
   10       -0.0000000000
   11       -0.0000000000
   12       -5.5794761500
   13        1.5512762600
   14       -0.0000000000
   15        1.2587777900
   16       -0.3499812600
   17        0.0000000000
   18       -1.6137769500
   19        0.4486826000
   20        0.0000000000
   21        0.7804010200
   22       -0.2169769200
   23       -0.0000000000
   24       -0.0000000000
   25       -0.0000000000
   26       -1.0995610900
   27        0.3057138300
   28        0.0000000000
   29       -0.0000000000
   30       -0.0000000000
   31       -0.0000000000
   32        0.2381519500
   33       -0.0662140100
   34       -0.0000000000
   35        0.0000000000
   36        0.0000000000
   37       -0.0000000000
   38       -0.0000000000
   39        0.0000000000
   40       -0.0000000000
   41        0.0000000000
   42       -0.0000000000
   43        0.0000000000
   44       -0.0000000000
   45        0.0000000000
   46        5.5794761500
   47       -1.5512762600
   48       -0.0000000000
   49       -1.2587777900
   50        0.3499812600
   51        0.0000000000
   52        1.6137769500
   53       -0.4486826000
   54       -0.0000000000
   55       -0.7804010200
   56        0.2169769200
   57       -0.0000000000
   58        0.0000000000
   59        0.0000000000
   60       -1.0995610900
   61        0.3057138300
   62       -0.0000000000
   63        0.0000000000
   64        0.0000000000
   65        0.0000000000
   66        0.2381519500
   67       -0.0662140100
   68        0.0000000000
 Ene=          0.02085300
 Spin= Alpha
 Occup=        0.00000000
    1       -0.0000000000
    2        0.0000000000
    3        0.0000000000
    4       -0.0000000000
    5        0.0000000000
    6       -0.0000000000
    7        0.0000000000
    8       -0.0000000000
    9        0.0000000000
   10       -0.0000000000
   11       -0.0000000000
   12       -1.5512762600
   13       -5.5794761500
   14        0.0000000000
   15        0.3499812600
   16        1.2587777900