 Molden2AIM, Version 3.1.0 (02/25/2015)           Time: Thu Oct 17 19:54:45 2024
GAUSSIAN             68 MOL ORBITALS     68 PRIMITIVES        2 NUCLEI
  Be   1    (CENTRE  1)   0.00000000  0.00000000  0.00000000  CHARGE =  4.0
  Be   2    (CENTRE  2)  37.00000000  0.00000000  0.00000000  CHARGE =  4.0
CENTRE ASSIGNMENTS    1  1  1  1  1  1  1  1  1  1  1  1  1  1  1  1  1  1  1  1
CENTRE ASSIGNMENTS    1  1  1  1  1  1  1  1  1  1  1  1  1  1  2  2  2  2  2  2
CENTRE ASSIGNMENTS    2  2  2  2  2  2  2  2  2  2  2  2  2  2  2  2  2  2  2  2
CENTRE ASSIGNMENTS    2  2  2  2  2  2  2  2
TYPE ASSIGNMENTS      1  1  1  1  1  1  1  1  1  1  2  3  4  2  3  4  2  3  4  2
TYPE ASSIGNMENTS      3  4  5  6  7  8  9 10  5  6  7  8  9 10  1  1  1  1  1  1
TYPE ASSIGNMENTS      1  1  1  1  2  3  4  2  3  4  2  3  4  2  3  4  5  6  7  8
TYPE ASSIGNMENTS      9 10  5  6  7  8  9 10
EXPONENTS  0.1000000D-03 0.3000000D-03 0.9000000D-03 0.2700000D-02 0.8100000D-02
EXPONENTS  0.2430000D-01 0.7290000D-01 0.2187000D+00 0.6561000D+00 0.1968300D+01
EXPONENTS  0.1000000D-03 0.1000000D-03 0.1000000D-03 0.3000000D-03 0.3000000D-03
EXPONENTS  0.3000000D-03 0.9000000D-03 0.9000000D-03 0.9000000D-03 0.2700000D-02
EXPONENTS  0.2700000D-02 0.2700000D-02 0.1000000D-03 0.1000000D-03 0.1000000D-03
EXPONENTS  0.1000000D-03 0.1000000D-03 0.1000000D-03 0.3000000D-03 0.3000000D-03
EXPONENTS  0.3000000D-03 0.3000000D-03 0.3000000D-03 0.3000000D-03 0.1000000D-03
EXPONENTS  0.3000000D-03 0.9000000D-03 0.2700000D-02 0.8100000D-02 0.2430000D-01
EXPONENTS  0.7290000D-01 0.2187000D+00 0.6561000D+00 0.1968300D+01 0.1000000D-03
EXPONENTS  0.1000000D-03 0.1000000D-03 0.3000000D-03 0.3000000D-03 0.3000000D-03
EXPONENTS  0.9000000D-03 0.9000000D-03 0.9000000D-03 0.2700000D-02 0.2700000D-02
EXPONENTS  0.2700000D-02 0.1000000D-03 0.1000000D-03 0.1000000D-03 0.1000000D-03
EXPONENTS  0.1000000D-03 0.1000000D-03 0.3000000D-03 0.3000000D-03 0.3000000D-03
EXPONENTS  0.3000000D-03 0.3000000D-03 0.3000000D-03
MO    1     MO 0.0        OCC NO =    1.0000000  ORB. ENERGY =   -0.003895
  0.35114350D-04 -0.63209288D-04 -0.34612065D-04 -0.17212751D-02 -0.56817560D-02
 -0.86140763D-02 -0.12200872D-01  0.22464548D-01  0.34977661D-02 -0.11038104D-03
 -0.22836926D-05  0.00000000D+00 -0.00000000D+00  0.30500399D-05 -0.00000000D+00
  0.00000000D+00 -0.87590450D-05  0.00000000D+00 -0.00000000D+00 -0.11274605D-04
 -0.00000000D+00  0.00000000D+00 -0.84129121D-08  0.24987412D-09  0.24987412D-09
  0.00000000D+00 -0.00000000D+00 -0.00000000D+00  0.33120181D-07  0.69797921D-08
  0.69797921D-08  0.00000000D+00  0.00000000D+00  0.00000000D+00  0.35114350D-04
 -0.63209288D-04 -0.34612065D-04 -0.17212751D-02 -0.56817560D-02 -0.86140763D-02
 -0.12200872D-01  0.22464548D-01  0.34977661D-02 -0.11038104D-03  0.22836926D-05
 -0.00000000D+00  0.00000000D+00 -0.30500399D-05  0.00000000D+00 -0.00000000D+00
  0.87590450D-05 -0.00000000D+00  0.00000000D+00  0.11274605D-04  0.00000000D+00
 -0.00000000D+00 -0.84129121D-08  0.24987412D-09  0.24987412D-09  0.00000000D+00
 -0.00000000D+00  0.00000000D+00  0.33120181D-07  0.69797921D-08  0.69797921D-08
  0.00000000D+00  0.00000000D+00 -0.00000000D+00
MO    2     MO 0.0        OCC NO =    0.0000000  ORB. ENERGY =   -0.003544
  0.75711415D-06  0.79018454D-05  0.60553828D-04  0.22981666D-02  0.54711283D-02
  0.94177717D-02  0.12400116D-01 -0.23195012D-01 -0.37642028D-02  0.16340420D-03
 -0.69571457D-07 -0.00000000D+00  0.00000000D+00 -0.63303001D-06  0.00000000D+00
 -0.00000000D+00  0.83056024D-05 -0.00000000D+00 -0.00000000D+00  0.34970322D-04
  0.00000000D+00  0.00000000D+00 -0.12586388D-08 -0.45294149D-09 -0.45294149D-09
 -0.00000000D+00  0.00000000D+00 -0.00000000D+00 -0.14704091D-07 -0.20121561D-07
 -0.20121561D-07  0.00000000D+00 -0.00000000D+00  0.00000000D+00 -0.75711415D-06
 -0.79018454D-05 -0.60553828D-04 -0.22981666D-02 -0.54711283D-02 -0.94177717D-02
 -0.12400116D-01  0.23195012D-01  0.37642028D-02 -0.16340420D-03 -0.69571457D-07
  0.00000000D+00 -0.00000000D+00 -0.63303001D-06 -0.00000000D+00  0.00000000D+00
  0.83056024D-05 -0.00000000D+00  0.00000000D+00  0.34970322D-04  0.00000000D+00
  0.00000000D+00  0.12586388D-08  0.45294149D-09  0.45294149D-09 -0.00000000D+00
  0.00000000D+00 -0.00000000D+00  0.14704091D-07  0.20121561D-07  0.20121561D-07
  0.00000000D+00 -0.00000000D+00  0.00000000D+00
MO    3     MO 0.0        OCC NO =    0.0000000  ORB. ENERGY =    0.004191
  0.48689826D-03  0.10447765D-03 -0.37982741D-02  0.56905718D-02  0.10930411D-02
  0.49324542D-02  0.37018677D-02 -0.80144862D-02 -0.17475114D-02  0.19726465D-03
 -0.19502088D-04  0.00000000D+00 -0.00000000D+00  0.24181142D-04 -0.00000000D+00
  0.00000000D+00 -0.10571840D-03  0.00000000D+00 -0.00000000D+00  0.41062395D-04
 -0.00000000D+00  0.00000000D+00 -0.77270008D-07 -0.42107856D-08 -0.42107856D-08
  0.00000000D+00 -0.00000000D+00 -0.00000000D+00  0.81149182D-07 -0.98866159D-07
 -0.98866159D-07 -0.00000000D+00  0.00000000D+00  0.00000000D+00  0.48689826D-03
  0.10447765D-03 -0.37982741D-02  0.56905718D-02  0.10930411D-02  0.49324542D-02
  0.37018677D-02 -0.80144862D-02 -0.17475114D-02  0.19726465D-03  0.19502088D-04
 -0.00000000D+00  0.00000000D+00 -0.24181142D-04  0.00000000D+00 -0.00000000D+00
  0.10571840D-03 -0.00000000D+00  0.00000000D+00 -0.41062395D-04  0.00000000D+00
 -0.00000000D+00 -0.77270008D-07 -0.42107856D-08 -0.42107856D-08  0.00000000D+00
 -0.00000000D+00  0.00000000D+00  0.81149182D-07 -0.98866159D-07 -0.98866159D-07
 -0.00000000D+00  0.00000000D+00 -0.00000000D+00
MO    4     MO 0.0        OCC NO =    0.0000000  ORB. ENERGY =    0.006129
  0.00000000D+00  0.00000000D+00  0.00000000D+00  0.00000000D+00  0.00000000D+00
  0.00000000D+00 -0.00000000D+00  0.00000000D+00 -0.00000000D+00  0.00000000D+00
 -0.00000000D+00 -0.17661911D-06 -0.34632696D-06 -0.00000000D+00  0.21611093D-05
  0.42376541D-05 -0.00000000D+00 -0.29720755D-04 -0.58278531D-04  0.00000000D+00
 -0.16232786D-03 -0.31830380D-03 -0.00000000D+00  0.00000000D+00  0.00000000D+00
  0.11661429D-08  0.22866528D-08  0.00000000D+00  0.00000000D+00  0.00000000D+00
  0.00000000D+00 -0.30468180D-07 -0.59744158D-07 -0.00000000D+00  0.00000000D+00
  0.00000000D+00  0.00000000D+00 -0.00000000D+00  0.00000000D+00 -0.00000000D+00
  0.00000000D+00  0.00000000D+00 -0.00000000D+00  0.00000000D+00  0.00000000D+00
 -0.17661911D-06 -0.34632696D-06 -0.00000000D+00  0.21611093D-05  0.42376541D-05
  0.00000000D+00 -0.29720755D-04 -0.58278531D-04  0.00000000D+00 -0.16232786D-03
 -0.31830380D-03 -0.00000000D+00 -0.00000000D+00 -0.00000000D+00 -0.11661429D-08
 -0.22866528D-08 -0.00000000D+00 -0.00000000D+00 -0.00000000D+00 -0.00000000D+00
  0.30468180D-07  0.59744158D-07  0.00000000D+00
MO    5     MO 0.0        OCC NO =    0.0000000  ORB. ENERGY =    0.006129
 -0.00000000D+00  0.00000000D+00 -0.00000000D+00 -0.00000000D+00  0.00000000D+00
 -0.00000000D+00  0.00000000D+00 -0.00000000D+00 -0.00000000D+00  0.00000000D+00
  0.00000000D+00 -0.34632696D-06  0.17661911D-06 -0.00000000D+00  0.42376541D-05
 -0.21611093D-05  0.00000000D+00 -0.58278531D-04  0.29720755D-04 -0.00000000D+00
 -0.31830380D-03  0.16232786D-03  0.00000000D+00 -0.00000000D+00 -0.00000000D+00
  0.22866528D-08 -0.11661429D-08  0.00000000D+00 -0.00000000D+00 -0.00000000D+00
 -0.00000000D+00 -0.59744158D-07  0.30468180D-07  0.00000000D+00 -0.00000000D+00
  0.00000000D+00  0.00000000D+00 -0.00000000D+00  0.00000000D+00 -0.00000000D+00
 -0.00000000D+00  0.00000000D+00 -0.00000000D+00  0.00000000D+00 -0.00000000D+00
 -0.34632696D-06  0.17661911D-06  0.00000000D+00  0.42376541D-05 -0.21611093D-05
 -0.00000000D+00 -0.58278531D-04  0.29720755D-04  0.00000000D+00 -0.31830380D-03
  0.16232786D-03  0.00000000D+00  0.00000000D+00  0.00000000D+00 -0.22866528D-08
  0.11661429D-08  0.00000000D+00 -0.00000000D+00  0.00000000D+00 -0.00000000D+00
  0.59744158D-07 -0.30468180D-07 -0.00000000D+00
MO    6     MO 0.0        OCC NO =    0.0000000  ORB. ENERGY =    0.008510
 -0.00000000D+00  0.00000000D+00  0.00000000D+00  0.00000000D+00 -0.00000000D+00
 -0.00000000D+00  0.00000000D+00 -0.00000000D+00  0.00000000D+00  0.00000000D+00
 -0.00000000D+00  0.35325328D-05  0.25548347D-05  0.00000000D+00 -0.23687574D-07
 -0.17131704D-07  0.00000000D+00  0.13647891D-04  0.98705673D-05  0.00000000D+00
  0.52248066D-03  0.37787385D-03  0.00000000D+00  0.00000000D+00  0.00000000D+00
  0.12397247D-07  0.89660657D-08  0.00000000D+00  0.00000000D+00  0.00000000D+00
  0.00000000D+00  0.21381450D-07  0.15463717D-07 -0.00000000D+00  0.00000000D+00
 -0.00000000D+00 -0.00000000D+00 -0.00000000D+00  0.00000000D+00 -0.00000000D+00
  0.00000000D+00 -0.00000000D+00  0.00000000D+00 -0.00000000D+00 -0.00000000D+00
 -0.35325328D-05 -0.25548347D-05  0.00000000D+00  0.23687574D-07  0.17131704D-07
  0.00000000D+00 -0.13647891D-04 -0.98705673D-05  0.00000000D+00 -0.52248066D-03
 -0.37787385D-03  0.00000000D+00 -0.00000000D+00 -0.00000000D+00  0.12397247D-07
  0.89660657D-08  0.00000000D+00 -0.00000000D+00 -0.00000000D+00 -0.00000000D+00
  0.21381450D-07  0.15463717D-07 -0.00000000D+00
MO    7     MO 0.0        OCC NO =    0.0000000  ORB. ENERGY =    0.008510
  0.00000000D+00  0.00000000D+00 -0.00000000D+00  0.00000000D+00  0.00000000D+00
  0.00000000D+00  0.00000000D+00 -0.00000000D+00  0.00000000D+00  0.00000000D+00
  0.00000000D+00  0.25548347D-05 -0.35325328D-05  0.00000000D+00 -0.17131704D-07
  0.23687574D-07 -0.00000000D+00  0.98705673D-05 -0.13647891D-04 -0.00000000D+00
  0.37787385D-03 -0.52248066D-03  0.00000000D+00  0.00000000D+00  0.00000000D+00
  0.89660657D-08 -0.12397247D-07 -0.00000000D+00  0.00000000D+00  0.00000000D+00
  0.00000000D+00  0.15463717D-07 -0.21381450D-07 -0.00000000D+00 -0.00000000D+00
 -0.00000000D+00  0.00000000D+00  0.00000000D+00 -0.00000000D+00 -0.00000000D+00
 -0.00000000D+00  0.00000000D+00 -0.00000000D+00  0.00000000D+00 -0.00000000D+00
 -0.25548347D-05  0.35325328D-05  0.00000000D+00  0.17131704D-07 -0.23687574D-07
 -0.00000000D+00 -0.98705673D-05  0.13647891D-04 -0.00000000D+00 -0.37787385D-03
  0.52248066D-03  0.00000000D+00 -0.00000000D+00 -0.00000000D+00  0.89660657D-08
 -0.12397247D-07  0.00000000D+00 -0.00000000D+00 -0.00000000D+00 -0.00000000D+00
  0.15463717D-07 -0.21381450D-07  0.00000000D+00
MO    8     MO 0.0        OCC NO =    0.0000000  ORB. ENERGY =    0.009325
 -0.20107616D-04  0.52718989D-05  0.96715056D-02  0.15756406D-02 -0.10891756D-01
 -0.85398577D-03 -0.80662699D-02  0.12101285D-01  0.85770382D-03  0.28573529D-03
  0.19771971D-05 -0.00000000D+00 -0.00000000D+00 -0.14576896D-05  0.00000000D+00
  0.00000000D+00  0.22348783D-03 -0.00000000D+00 -0.00000000D+00  0.28269459D-03
  0.00000000D+00 -0.00000000D+00  0.17288194D-07  0.30001051D-07  0.30001051D-07
 -0.00000000D+00 -0.00000000D+00  0.00000000D+00  0.29533422D-06  0.13478127D-06
  0.13478127D-06  0.00000000D+00  0.00000000D+00 -0.00000000D+00  0.20107616D-04
 -0.52718989D-05 -0.96715056D-02 -0.15756406D-02  0.10891756D-01  0.85398577D-03
  0.80662699D-02 -0.12101285D-01 -0.85770382D-03 -0.28573529D-03  0.19771971D-05
  0.00000000D+00  0.00000000D+00 -0.14576896D-05 -0.00000000D+00 -0.00000000D+00
  0.22348783D-03 -0.00000000D+00 -0.00000000D+00  0.28269459D-03  0.00000000D+00
  0.00000000D+00 -0.17288194D-07 -0.30001051D-07 -0.30001051D-07 -0.00000000D+00
 -0.00000000D+00 -0.00000000D+00 -0.29533422D-06 -0.13478127D-06 -0.13478127D-06
  0.00000000D+00 -0.00000000D+00  0.00000000D+00
MO    9     MO 0.0        OCC NO =    0.0000000  ORB. ENERGY =    0.009682
  0.27286998D-03 -0.45268646D-03 -0.17048112D-02  0.82254345D-02 -0.97710600D-02
  0.22995164D-02 -0.58257552D-02  0.71968009D-02 -0.22748515D-03  0.40933363D-03
 -0.20604479D-04  0.00000000D+00  0.00000000D+00  0.22267174D-04 -0.00000000D+00
 -0.00000000D+00 -0.11271466D-03  0.00000000D+00 -0.00000000D+00  0.63597216D-03
 -0.00000000D+00  0.00000000D+00 -0.73916468D-07  0.37113008D-08  0.37113008D-08
  0.00000000D+00  0.00000000D+00  0.00000000D+00  0.24967746D-06  0.87208676D-07
  0.87208676D-07 -0.00000000D+00 -0.00000000D+00 -0.00000000D+00  0.27286998D-03
 -0.45268646D-03 -0.17048112D-02  0.82254345D-02 -0.97710600D-02  0.22995164D-02
 -0.58257552D-02  0.71968009D-02 -0.22748515D-03  0.40933363D-03  0.20604479D-04
 -0.00000000D+00 -0.00000000D+00 -0.22267174D-04  0.00000000D+00  0.00000000D+00
  0.11271466D-03 -0.00000000D+00  0.00000000D+00 -0.63597216D-03  0.00000000D+00
 -0.00000000D+00 -0.73916468D-07  0.37113008D-08  0.37113008D-08  0.00000000D+00
  0.00000000D+00 -0.00000000D+00  0.24967746D-06  0.87208676D-07  0.87208676D-07
 -0.00000000D+00 -0.00000000D+00  0.00000000D+00
MO   10     MO 0.0        OCC NO =    0.0000000  ORB. ENERGY =    0.013341
 -0.00000000D+00  0.00000000D+00  0.00000000D+00 -0.00000000D+00  0.00000000D+00
 -0.00000000D+00  0.00000000D+00 -0.00000000D+00 -0.00000000D+00 -0.00000000D+00
  0.00000000D+00  0.59595861D-06  0.79802758D-06 -0.00000000D+00 -0.77365974D-05
 -0.10359809D-04  0.00000000D+00  0.12975848D-03  0.17375509D-03  0.00000000D+00
 -0.49153877D-03 -0.65820253D-03  0.00000000D+00  0.00000000D+00  0.00000000D+00
 -0.22571012D-08 -0.30224071D-08 -0.00000000D+00 -0.00000000D+00  0.00000000D+00
  0.00000000D+00  0.88565542D-07  0.11859504D-06  0.00000000D+00 -0.00000000D+00
  0.00000000D+00  0.00000000D+00 -0.00000000D+00  0.00000000D+00  0.00000000D+00
  0.00000000D+00 -0.00000000D+00 -0.00000000D+00  0.00000000D+00 -0.00000000D+00
  0.59595861D-06  0.79802758D-06  0.00000000D+00 -0.77365974D-05 -0.10359809D-04
 -0.00000000D+00  0.12975848D-03  0.17375509D-03 -0.00000000D+00 -0.49153877D-03
 -0.65820253D-03  0.00000000D+00 -0.00000000D+00 -0.00000000D+00  0.22571012D-08
  0.30224071D-08  0.00000000D+00 -0.00000000D+00 -0.00000000D+00 -0.00000000D+00
 -0.88565542D-07 -0.11859504D-06 -0.00000000D+00
MO   11     MO 0.0        OCC NO =    0.0000000  ORB. ENERGY =    0.013341
  0.00000000D+00 -0.00000000D+00 -0.00000000D+00  0.00000000D+00 -0.00000000D+00
  0.00000000D+00 -0.00000000D+00  0.00000000D+00  0.00000000D+00 -0.00000000D+00
 -0.00000000D+00 -0.79802758D-06  0.59595861D-06  0.00000000D+00  0.10359809D-04
 -0.77365974D-05 -0.00000000D+00 -0.17375509D-03  0.12975848D-03 -0.00000000D+00
  0.65820253D-03 -0.49153877D-03 -0.00000000D+00 -0.00000000D+00 -0.00000000D+00
  0.30224071D-08 -0.22571012D-08  0.00000000D+00 -0.00000000D+00 -0.00000000D+00
 -0.00000000D+00 -0.11859504D-06  0.88565542D-07 -0.00000000D+00  0.00000000D+00
 -0.00000000D+00  0.00000000D+00  0.00000000D+00 -0.00000000D+00 -0.00000000D+00
 -0.00000000D+00  0.00000000D+00  0.00000000D+00 -0.00000000D+00  0.00000000D+00
 -0.79802758D-06  0.59595861D-06 -0.00000000D+00  0.10359809D-04 -0.77365974D-05
  0.00000000D+00 -0.17375509D-03  0.12975848D-03  0.00000000D+00  0.65820253D-03
 -0.49153877D-03 -0.00000000D+00  0.00000000D+00  0.00000000D+00 -0.30224071D-08
  0.22571012D-08 -0.00000000D+00  0.00000000D+00  0.00000000D+00  0.00000000D+00
  0.11859504D-06 -0.88565542D-07  0.00000000D+00
MO   12     MO 0.0        OCC NO =    0.0000000  ORB. ENERGY =    0.013608
  0.14725943D-03 -0.22054249D-03 -0.11180336D-02  0.12851023D-01 -0.17505854D-01
 -0.24953730D-03 -0.10060049D-01  0.14672271D-01  0.87631973D-03  0.40285526D-03
 -0.12966283D-04  0.00000000D+00  0.00000000D+00  0.77600655D-05 -0.00000000D+00
 -0.00000000D+00 -0.76291473D-04  0.00000000D+00  0.00000000D+00 -0.14446545D-03
 -0.00000000D+00 -0.00000000D+00 -0.45136766D-07  0.29988088D-08  0.29988088D-08
  0.00000000D+00  0.00000000D+00  0.00000000D+00  0.96036414D-07  0.75545340D-07
  0.75545340D-07 -0.00000000D+00 -0.00000000D+00 -0.00000000D+00  0.14725943D-03
 -0.22054249D-03 -0.11180336D-02  0.12851023D-01 -0.17505854D-01 -0.24953730D-03
 -0.10060049D-01  0.14672271D-01  0.87631973D-03  0.40285526D-03  0.12966283D-04
 -0.00000000D+00 -0.00000000D+00 -0.77600655D-05  0.00000000D+00  0.00000000D+00
  0.76291473D-04  0.00000000D+00  0.00000000D+00  0.14446545D-03 -0.00000000D+00
 -0.00000000D+00 -0.45136766D-07  0.29988088D-08  0.29988088D-08  0.00000000D+00
  0.00000000D+00 -0.00000000D+00  0.96036414D-07  0.75545340D-07  0.75545340D-07
 -0.00000000D+00 -0.00000000D+00  0.00000000D+00
MO   13     MO 0.0        OCC NO =    0.0000000  ORB. ENERGY =    0.014196
 -0.10304595D-04 -0.55153819D-04  0.99163315D-03  0.80923641D-03 -0.10034129D-02
  0.31988626D-02  0.13155659D-03 -0.18537729D-02 -0.91653385D-03  0.20957001D-03
  0.97518192D-06 -0.00000000D+00 -0.00000000D+00  0.37489691D-05  0.00000000D+00
 -0.00000000D+00 -0.23944024D-04 -0.00000000D+00 -0.00000000D+00  0.94398588D-03
  0.00000000D+00  0.00000000D+00  0.13522936D-07  0.10731105D-07  0.10731105D-07
 -0.00000000D+00 -0.00000000D+00  0.00000000D+00  0.16825462D-06  0.17094831D-06
  0.17094831D-06  0.00000000D+00 -0.00000000D+00 -0.00000000D+00  0.10304595D-04
  0.55153819D-04 -0.99163315D-03 -0.80923641D-03  0.10034129D-02 -0.31988626D-02
 -0.13155659D-03  0.18537729D-02  0.91653385D-03 -0.20957001D-03  0.97518192D-06
  0.00000000D+00  0.00000000D+00  0.37489691D-05 -0.00000000D+00  0.00000000D+00
 -0.23944024D-04  0.00000000D+00 -0.00000000D+00  0.94398588D-03 -0.00000000D+00
 -0.00000000D+00 -0.13522936D-07 -0.10731105D-07 -0.10731105D-07 -0.00000000D+00
 -0.00000000D+00 -0.00000000D+00 -0.16825462D-06 -0.17094831D-06 -0.17094831D-06
  0.00000000D+00 -0.00000000D+00  0.00000000D+00
MO   14     MO 0.0        OCC NO =    0.0000000  ORB. ENERGY =    0.018030
  0.11933733D-04 -0.85336509D-04 -0.17093248D-01  0.23681097D-01 -0.23705534D-01
  0.25836080D-02 -0.11033545D-01  0.14609533D-01  0.19220687D-03  0.62410292D-03
 -0.12371821D-05 -0.00000000D+00 -0.00000000D+00  0.55508630D-05  0.00000000D+00
  0.00000000D+00 -0.43318926D-03 -0.00000000D+00  0.00000000D+00  0.22773762D-03
  0.00000000D+00 -0.00000000D+00 -0.31854416D-08 -0.24514097D-07 -0.24514097D-07
 -0.00000000D+00 -0.00000000D+00  0.00000000D+00 -0.18104730D-06  0.49727044D-07
  0.49727044D-07  0.00000000D+00  0.00000000D+00 -0.00000000D+00 -0.11933733D-04
  0.85336509D-04  0.17093248D-01 -0.23681097D-01  0.23705534D-01 -0.25836080D-02
  0.11033545D-01 -0.14609533D-01 -0.19220687D-03 -0.62410292D-03 -0.12371821D-05
  0.00000000D+00  0.00000000D+00  0.55508630D-05 -0.00000000D+00 -0.00000000D+00
 -0.43318926D-03  0.00000000D+00 -0.00000000D+00  0.22773762D-03 -0.00000000D+00
  0.00000000D+00  0.31854416D-08  0.24514097D-07  0.24514097D-07 -0.00000000D+00
 -0.00000000D+00 -0.00000000D+00  0.18104730D-06 -0.49727044D-07 -0.49727044D-07
  0.00000000D+00  0.00000000D+00  0.00000000D+00
MO   15     MO 0.0        OCC NO =    0.0000000  ORB. ENERGY =    0.019680
  0.00000000D+00 -0.00000000D+00  0.00000000D+00 -0.00000000D+00  0.00000000D+00
 -0.00000000D+00  0.00000000D+00 -0.00000000D+00  0.00000000D+00  0.00000000D+00
  0.00000000D+00 -0.10572313D-03  0.29249086D-05 -0.00000000D+00  0.92023295D-04
 -0.25458925D-05  0.00000000D+00 -0.38893693D-03  0.10760228D-04 -0.00000000D+00
  0.73136497D-03 -0.20233751D-04  0.00000000D+00  0.00000000D+00  0.00000000D+00
 -0.38567516D-06  0.10669988D-07 -0.00000000D+00 -0.00000000D+00  0.00000000D+00
  0.00000000D+00  0.63740798D-06 -0.17634355D-07  0.00000000D+00 -0.00000000D+00
  0.00000000D+00 -0.00000000D+00  0.00000000D+00 -0.00000000D+00 -0.00000000D+00
 -0.00000000D+00  0.00000000D+00 -0.00000000D+00  0.00000000D+00 -0.00000000D+00
  0.10572313D-03 -0.29249086D-05 -0.00000000D+00 -0.92023295D-04  0.25458925D-05
  0.00000000D+00  0.38893693D-03 -0.10760228D-04  0.00000000D+00 -0.73136497D-03
  0.20233751D-04  0.00000000D+00 -0.00000000D+00 -0.00000000D+00 -0.38567516D-06
  0.10669988D-07  0.00000000D+00  0.00000000D+00 -0.00000000D+00 -0.00000000D+00
  0.63740798D-06 -0.17634355D-07 -0.00000000D+00
MO   16     MO 0.0        OCC NO =    0.0000000  ORB. ENERGY =    0.019680
 -0.00000000D+00  0.00000000D+00  0.00000000D+00 -0.00000000D+00  0.00000000D+00
 -0.00000000D+00  0.00000000D+00 -0.00000000D+00  0.00000000D+00 -0.00000000D+00
 -0.00000000D+00  0.29249086D-05  0.10572313D-03  0.00000000D+00 -0.25458925D-05
 -0.92023295D-04 -0.00000000D+00  0.10760228D-04  0.38893693D-03  0.00000000D+00
 -0.20233751D-04 -0.73136497D-03  0.00000000D+00  0.00000000D+00  0.00000000D+00
  0.10669988D-07  0.38567516D-06  0.00000000D+00  0.00000000D+00  0.00000000D+00
  0.00000000D+00 -0.17634355D-07 -0.63740798D-06 -0.00000000D+00  0.00000000D+00
 -0.00000000D+00  0.00000000D+00 -0.00000000D+00  0.00000000D+00 -0.00000000D+00
  0.00000000D+00 -0.00000000D+00  0.00000000D+00  0.00000000D+00 -0.00000000D+00
 -0.29249086D-05 -0.10572313D-03  0.00000000D+00  0.25458925D-05  0.92023295D-04
  0.00000000D+00 -0.10760228D-04 -0.38893693D-03  0.00000000D+00  0.20233751D-04
  0.73136497D-03  0.00000000D+00 -0.00000000D+00 -0.00000000D+00  0.10669988D-07
  0.38567516D-06 -0.00000000D+00 -0.00000000D+00 -0.00000000D+00 -0.00000000D+00
 -0.17634355D-07 -0.63740798D-06  0.00000000D+00
MO   17     MO 0.0        OCC NO =    0.0000000  ORB. ENERGY =    0.024303
  0.95210009D-03 -0.24190992D-02  0.67120998D-02 -0.10304376D-01  0.83693666D-02
  0.19267141D-02  0.31881711D-02 -0.55784452D-02 -0.79893613D-03 -0.68928931D-05
 -0.67721255D-04  0.00000000D+00  0.00000000D+00  0.71239781D-04 -0.00000000D+00
 -0.00000000D+00 -0.27312744D-03  0.00000000D+00  0.00000000D+00  0.54980305D-03
 -0.00000000D+00  0.00000000D+00 -0.24685991D-06  0.10012217D-07  0.10012217D-07
  0.00000000D+00  0.00000000D+00  0.00000000D+00  0.90382631D-06  0.34433544D-06
  0.34433544D-06 -0.00000000D+00 -0.00000000D+00 -0.00000000D+00  0.95210009D-03
 -0.24190992D-02  0.67120998D-02 -0.10304376D-01  0.83693666D-02  0.19267141D-02
  0.31881711D-02 -0.55784452D-02 -0.79893613D-03 -0.68928931D-05  0.67721255D-04
 -0.00000000D+00 -0.00000000D+00 -0.71239781D-04  0.00000000D+00  0.00000000D+00
  0.27312744D-03 -0.00000000D+00  0.00000000D+00 -0.54980305D-03 -0.00000000D+00
 -0.00000000D+00 -0.24685991D-06  0.10012217D-07  0.10012217D-07  0.00000000D+00
  0.00000000D+00 -0.00000000D+00  0.90382631D-06  0.34433544D-06  0.34433544D-06
 -0.00000000D+00 -0.00000000D+00  0.00000000D+00
MO   18     MO 0.0        OCC NO =    0.0000000  ORB. ENERGY =    0.026632
  0.48584398D-04  0.55381605D-03  0.71795866D-02  0.14648104D-02 -0.13096208D-02
 -0.14311649D-02 -0.57409349D-03  0.15187172D-02  0.40940469D-03 -0.59158078D-04
 -0.44548494D-05  0.00000000D+00  0.00000000D+00 -0.41939612D-04 -0.00000000D+00
  0.00000000D+00  0.76759130D-03  0.00000000D+00  0.00000000D+00 -0.73185888D-03
  0.00000000D+00 -0.00000000D+00 -0.81403081D-07 -0.33331077D-07 -0.33331077D-07
  0.00000000D+00  0.00000000D+00 -0.00000000D+00 -0.96395019D-06 -0.12423679D-05
 -0.12423679D-05 -0.00000000D+00  0.00000000D+00  0.00000000D+00 -0.48584398D-04
 -0.55381605D-03 -0.71795866D-02 -0.14648104D-02  0.13096208D-02  0.14311649D-02
  0.57409349D-03 -0.15187172D-02 -0.40940469D-03  0.59158078D-04 -0.44548494D-05
 -0.00000000D+00 -0.00000000D+00 -0.41939612D-04  0.00000000D+00 -0.00000000D+00
  0.76759130D-03 -0.00000000D+00 -0.00000000D+00 -0.73185888D-03 -0.00000000D+00
  0.00000000D+00  0.81403081D-07  0.33331077D-07  0.33331077D-07  0.00000000D+00
  0.00000000D+00  0.00000000D+00  0.96395019D-06  0.12423679D-05  0.12423679D-05
 -0.00000000D+00  0.00000000D+00 -0.00000000D+00
MO   19     MO 0.0        OCC NO =    0.0000000  ORB. ENERGY =    0.029442
 -0.37528209D-02 -0.37149229D-02  0.17725096D-01 -0.17783508D-01  0.83687277D-02
  0.51375780D-02  0.19685424D-02 -0.54729717D-02 -0.16028133D-02  0.25393560D-03
  0.64850310D-04 -0.00000000D+00  0.00000000D+00 -0.12657037D-03  0.00000000D+00
  0.00000000D+00  0.77921451D-04 -0.00000000D+00 -0.00000000D+00 -0.19321148D-03
  0.00000000D+00  0.00000000D+00  0.33628854D-06  0.87698036D-07  0.87698036D-07
 -0.00000000D+00  0.00000000D+00  0.00000000D+00  0.65533514D-06  0.18810242D-05
  0.18810242D-05  0.00000000D+00  0.00000000D+00 -0.00000000D+00 -0.37528209D-02
 -0.37149229D-02  0.17725096D-01 -0.17783508D-01  0.83687277D-02  0.51375780D-02
  0.19685424D-02 -0.54729717D-02 -0.16028133D-02  0.25393560D-03 -0.64850310D-04
  0.00000000D+00 -0.00000000D+00  0.12657037D-03 -0.00000000D+00 -0.00000000D+00
 -0.77921451D-04  0.00000000D+00 -0.00000000D+00  0.19321148D-03 -0.00000000D+00
 -0.00000000D+00  0.33628854D-06  0.87698036D-07  0.87698036D-07 -0.00000000D+00
  0.00000000D+00 -0.00000000D+00  0.65533514D-06  0.18810242D-05  0.18810242D-05
  0.00000000D+00  0.00000000D+00  0.00000000D+00
MO   20     MO 0.0        OCC NO =    0.0000000  ORB. ENERGY =    0.038494
  0.42507115D-03  0.69219535D-03 -0.16273724D-01  0.10315462D-01  0.10145612D-02
 -0.13875162D-01  0.19514181D-02  0.38462032D-02  0.32895515D-02 -0.86189589D-03
 -0.39457819D-04  0.00000000D+00 -0.00000000D+00 -0.17678458D-04 -0.00000000D+00
  0.00000000D+00  0.19432533D-03  0.00000000D+00 -0.00000000D+00 -0.21229218D-03
 -0.00000000D+00  0.00000000D+00 -0.62486506D-06 -0.59998954D-06 -0.59998954D-06
  0.00000000D+00 -0.00000000D+00 -0.00000000D+00 -0.47286282D-05 -0.44929105D-05
 -0.44929105D-05 -0.00000000D+00  0.00000000D+00  0.00000000D+00 -0.42507115D-03
 -0.69219535D-03  0.16273724D-01 -0.10315462D-01 -0.10145612D-02  0.13875162D-01
 -0.19514181D-02 -0.38462032D-02 -0.32895515D-02  0.86189589D-03 -0.39457819D-04
 -0.00000000D+00  0.00000000D+00 -0.17678458D-04  0.00000000D+00 -0.00000000D+00
  0.19432533D-03 -0.00000000D+00  0.00000000D+00 -0.21229218D-03  0.00000000D+00
 -0.00000000D+00  0.62486506D-06  0.59998954D-06  0.59998954D-06  0.00000000D+00
 -0.00000000D+00  0.00000000D+00  0.47286282D-05  0.44929105D-05  0.44929105D-05
 -0.00000000D+00  0.00000000D+00 -0.00000000D+00
MO   21     MO 0.0        OCC NO =    0.0000000  ORB. ENERGY =    0.039904
 -0.00000000D+00  0.00000000D+00  0.00000000D+00 -0.00000000D+00 -0.00000000D+00
  0.00000000D+00 -0.00000000D+00 -0.00000000D+00 -0.00000000D+00  0.00000000D+00
  0.00000000D+00  0.00000000D+00 -0.00000000D+00 -0.00000000D+00 -0.00000000D+00
 -0.00000000D+00 -0.00000000D+00  0.00000000D+00  0.00000000D+00  0.00000000D+00
 -0.00000000D+00  0.00000000D+00  0.00000000D+00 -0.47827614D-07  0.47827614D-07
  0.00000000D+00 -0.00000000D+00 -0.70536346D-08  0.00000000D+00  0.64247256D-06
 -0.64247256D-06 -0.00000000D+00 -0.00000000D+00  0.94752117D-07 -0.00000000D+00
  0.00000000D+00 -0.00000000D+00  0.00000000D+00 -0.00000000D+00 -0.00000000D+00
  0.00000000D+00 -0.00000000D+00  0.00000000D+00 -0.00000000D+00 -0.00000000D+00
 -0.00000000D+00  0.00000000D+00  0.00000000D+00  0.00000000D+00  0.00000000D+00
 -0.00000000D+00 -0.00000000D+00 -0.00000000D+00  0.00000000D+00  0.00000000D+00
  0.00000000D+00  0.00000000D+00 -0.47827614D-07  0.47827614D-07  0.00000000D+00
 -0.00000000D+00 -0.70536346D-08 -0.00000000D+00  0.64247256D-06 -0.64247256D-06
 -0.00000000D+00 -0.00000000D+00  0.94752117D-07
MO   22     MO 0.0        OCC NO =    0.0000000  ORB. ENERGY =    0.039904
 -0.00000000D+00  0.00000000D+00  0.00000000D+00 -0.00000000D+00 -0.00000000D+00
  0.00000000D+00 -0.00000000D+00 -0.00000000D+00 -0.00000000D+00 -0.00000000D+00
  0.00000000D+00 -0.00000000D+00 -0.00000000D+00 -0.00000000D+00  0.00000000D+00
  0.00000000D+00 -0.00000000D+00 -0.00000000D+00 -0.00000000D+00  0.00000000D+00
  0.00000000D+00  0.00000000D+00  0.00000000D+00 -0.35268175D-08  0.35268175D-08
 -0.00000000D+00 -0.00000000D+00  0.95655229D-07  0.00000000D+00  0.47376059D-07
 -0.47376059D-07  0.00000000D+00  0.00000000D+00 -0.12849451D-05 -0.00000000D+00
  0.00000000D+00 -0.00000000D+00  0.00000000D+00 -0.00000000D+00 -0.00000000D+00
 -0.00000000D+00  0.00000000D+00  0.00000000D+00 -0.00000000D+00 -0.00000000D+00
  0.00000000D+00  0.00000000D+00  0.00000000D+00 -0.00000000D+00 -0.00000000D+00
 -0.00000000D+00  0.00000000D+00  0.00000000D+00  0.00000000D+00 -0.00000000D+00
 -0.00000000D+00  0.00000000D+00 -0.35268175D-08  0.35268175D-08 -0.00000000D+00
 -0.00000000D+00  0.95655229D-07 -0.00000000D+00  0.47376059D-07 -0.47376059D-07
  0.00000000D+00  0.00000000D+00 -0.12849451D-05
MO   23     MO 0.0        OCC NO =    0.0000000  ORB. ENERGY =    0.042494
 -0.22185357D-03  0.98463821D-03 -0.36619913D-02  0.26152834D-02  0.50364523D-02
 -0.13256068D-01  0.28644990D-02  0.21015232D-02  0.29354646D-02 -0.82943297D-03
  0.18863024D-04 -0.00000000D+00  0.00000000D+00 -0.10349544D-03  0.00000000D+00
 -0.00000000D+00  0.12563536D-03 -0.00000000D+00  0.00000000D+00 -0.14000697D-03
  0.00000000D+00 -0.00000000D+00  0.50515051D-06  0.46581407D-06  0.46581407D-06
 -0.00000000D+00  0.00000000D+00 -0.00000000D+00 -0.31031532D-07  0.49965210D-06
  0.49965210D-06  0.00000000D+00 -0.00000000D+00 -0.00000000D+00  0.22185357D-03
 -0.98463821D-03  0.36619913D-02 -0.26152834D-02 -0.50364523D-02  0.13256068D-01
 -0.28644990D-02 -0.21015232D-02 -0.29354646D-02  0.82943297D-03  0.18863024D-04
  0.00000000D+00 -0.00000000D+00 -0.10349544D-03 -0.00000000D+00  0.00000000D+00
  0.12563536D-03  0.00000000D+00 -0.00000000D+00 -0.14000697D-03 -0.00000000D+00
  0.00000000D+00 -0.50515051D-06 -0.46581407D-06 -0.46581407D-06 -0.00000000D+00
  0.00000000D+00  0.00000000D+00  0.31031532D-07 -0.49965210D-06 -0.49965210D-06
  0.00000000D+00 -0.00000000D+00  0.00000000D+00
MO   24     MO 0.0        OCC NO =    0.0000000  ORB. ENERGY =    0.043287
  0.11279338D-01 -0.41717802D-02 -0.12313665D-02  0.22425784D-03 -0.16449400D-02
  0.36322086D-02 -0.83785460D-03 -0.49347666D-03 -0.79445230D-03  0.22793921D-03
 -0.40960787D-03  0.00000000D+00 -0.00000000D+00  0.13071704D-03 -0.00000000D+00
  0.00000000D+00 -0.75561028D-04  0.00000000D+00  0.00000000D+00  0.77487603D-04
 -0.00000000D+00 -0.00000000D+00 -0.17779792D-05 -0.15318549D-06 -0.15318549D-06
  0.00000000D+00 -0.00000000D+00  0.00000000D+00  0.18665217D-06 -0.10579953D-05
 -0.10579953D-05 -0.00000000D+00  0.00000000D+00 -0.00000000D+00  0.11279338D-01
 -0.41717802D-02 -0.12313665D-02  0.22425784D-03 -0.16449400D-02  0.36322086D-02
 -0.83785460D-03 -0.49347666D-03 -0.79445230D-03  0.22793921D-03  0.40960787D-03
 -0.00000000D+00  0.00000000D+00 -0.13071704D-03  0.00000000D+00 -0.00000000D+00