 Molden2AIM, Version 3.1.0 (02/25/2015)           Time: Thu Oct 17 19:54:42 2024
GAUSSIAN             68 MOL ORBITALS     68 PRIMITIVES        2 NUCLEI
  Be   1    (CENTRE  1)   0.00000000  0.00000000  0.00000000  CHARGE =  4.0
  Be   2    (CENTRE  2)  36.20000000  0.00000000  0.00000000  CHARGE =  4.0
CENTRE ASSIGNMENTS    1  1  1  1  1  1  1  1  1  1  1  1  1  1  1  1  1  1  1  1
CENTRE ASSIGNMENTS    1  1  1  1  1  1  1  1  1  1  1  1  1  1  2  2  2  2  2  2
CENTRE ASSIGNMENTS    2  2  2  2  2  2  2  2  2  2  2  2  2  2  2  2  2  2  2  2
CENTRE ASSIGNMENTS    2  2  2  2  2  2  2  2
TYPE ASSIGNMENTS      1  1  1  1  1  1  1  1  1  1  2  3  4  2  3  4  2  3  4  2
TYPE ASSIGNMENTS      3  4  5  6  7  8  9 10  5  6  7  8  9 10  1  1  1  1  1  1
TYPE ASSIGNMENTS      1  1  1  1  2  3  4  2  3  4  2  3  4  2  3  4  5  6  7  8
TYPE ASSIGNMENTS      9 10  5  6  7  8  9 10
EXPONENTS  0.1000000D-03 0.3000000D-03 0.9000000D-03 0.2700000D-02 0.8100000D-02
EXPONENTS  0.2430000D-01 0.7290000D-01 0.2187000D+00 0.6561000D+00 0.1968300D+01
EXPONENTS  0.1000000D-03 0.1000000D-03 0.1000000D-03 0.3000000D-03 0.3000000D-03
EXPONENTS  0.3000000D-03 0.9000000D-03 0.9000000D-03 0.9000000D-03 0.2700000D-02
EXPONENTS  0.2700000D-02 0.2700000D-02 0.1000000D-03 0.1000000D-03 0.1000000D-03
EXPONENTS  0.1000000D-03 0.1000000D-03 0.1000000D-03 0.3000000D-03 0.3000000D-03
EXPONENTS  0.3000000D-03 0.3000000D-03 0.3000000D-03 0.3000000D-03 0.1000000D-03
EXPONENTS  0.3000000D-03 0.9000000D-03 0.2700000D-02 0.8100000D-02 0.2430000D-01
EXPONENTS  0.7290000D-01 0.2187000D+00 0.6561000D+00 0.1968300D+01 0.1000000D-03
EXPONENTS  0.1000000D-03 0.1000000D-03 0.3000000D-03 0.3000000D-03 0.3000000D-03
EXPONENTS  0.9000000D-03 0.9000000D-03 0.9000000D-03 0.2700000D-02 0.2700000D-02
EXPONENTS  0.2700000D-02 0.1000000D-03 0.1000000D-03 0.1000000D-03 0.1000000D-03
EXPONENTS  0.1000000D-03 0.1000000D-03 0.3000000D-03 0.3000000D-03 0.3000000D-03
EXPONENTS  0.3000000D-03 0.3000000D-03 0.3000000D-03
MO    1     MO 0.0        OCC NO =    1.0000000  ORB. ENERGY =   -0.003888
 -0.40262336D-04  0.75841044D-04  0.24170537D-04  0.17703807D-02  0.55948520D-02
  0.85527794D-02  0.12142223D-01 -0.22350502D-01 -0.34758561D-02  0.10866374D-03
  0.26810938D-05  0.00000000D+00 -0.00000000D+00 -0.36192632D-05  0.00000000D+00
  0.00000000D+00  0.96918055D-05 -0.00000000D+00 -0.00000000D+00  0.45495639D-05
  0.00000000D+00 -0.00000000D+00  0.96626514D-08 -0.28936475D-09 -0.28936475D-09
 -0.00000000D+00 -0.00000000D+00  0.00000000D+00 -0.39274504D-07 -0.81705415D-08
 -0.81705415D-08  0.00000000D+00  0.00000000D+00 -0.00000000D+00 -0.40262336D-04
  0.75841044D-04  0.24170537D-04  0.17703807D-02  0.55948520D-02  0.85527794D-02
  0.12142223D-01 -0.22350502D-01 -0.34758561D-02  0.10866374D-03 -0.26810938D-05
 -0.00000000D+00  0.00000000D+00  0.36192632D-05 -0.00000000D+00 -0.00000000D+00
 -0.96918055D-05  0.00000000D+00  0.00000000D+00 -0.45495639D-05 -0.00000000D+00
 -0.00000000D+00  0.96626514D-08 -0.28936475D-09 -0.28936475D-09  0.00000000D+00
 -0.00000000D+00 -0.00000000D+00 -0.39274504D-07 -0.81705415D-08 -0.81705415D-08
  0.00000000D+00  0.00000000D+00  0.00000000D+00
MO    2     MO 0.0        OCC NO =    0.0000000  ORB. ENERGY =   -0.003502
 -0.99111674D-06 -0.96648312D-05 -0.76384622D-04 -0.23556960D-02 -0.54225654D-02
 -0.93651889D-02 -0.12371784D-01  0.23130696D-01  0.37484860D-02 -0.16139082D-03
  0.93543021D-07  0.00000000D+00  0.00000000D+00  0.78073377D-06 -0.00000000D+00
 -0.00000000D+00 -0.10462416D-04 -0.00000000D+00  0.00000000D+00 -0.26006525D-04
  0.00000000D+00 -0.00000000D+00  0.16643341D-08  0.68160954D-09  0.68160954D-09
  0.00000000D+00  0.00000000D+00 -0.00000000D+00  0.19508284D-07  0.26073688D-07
  0.26073688D-07 -0.00000000D+00 -0.00000000D+00  0.00000000D+00  0.99111674D-06
  0.96648312D-05  0.76384622D-04  0.23556960D-02  0.54225654D-02  0.93651889D-02
  0.12371784D-01 -0.23130696D-01 -0.37484860D-02  0.16139082D-03  0.93543021D-07
 -0.00000000D+00 -0.00000000D+00  0.78073377D-06  0.00000000D+00  0.00000000D+00
 -0.10462416D-04  0.00000000D+00 -0.00000000D+00 -0.26006525D-04 -0.00000000D+00
  0.00000000D+00 -0.16643341D-08 -0.68160954D-09 -0.68160954D-09  0.00000000D+00
  0.00000000D+00  0.00000000D+00 -0.19508284D-07 -0.26073688D-07 -0.26073688D-07
 -0.00000000D+00 -0.00000000D+00 -0.00000000D+00
MO    3     MO 0.0        OCC NO =    0.0000000  ORB. ENERGY =    0.004169
 -0.49472553D-03 -0.88684568D-04  0.38390135D-02 -0.58664967D-02 -0.10207450D-02
 -0.49096178D-02 -0.36699959D-02  0.79602212D-02  0.17408974D-02 -0.19773839D-03
  0.20456728D-04  0.00000000D+00 -0.00000000D+00 -0.25348377D-04  0.00000000D+00
  0.00000000D+00  0.10653590D-03 -0.00000000D+00 -0.00000000D+00 -0.42075002D-04
  0.00000000D+00  0.00000000D+00  0.79136616D-07  0.41492792D-08  0.41492792D-08
  0.00000000D+00 -0.00000000D+00  0.00000000D+00 -0.91501963D-07  0.97945422D-07
  0.97945422D-07  0.00000000D+00  0.00000000D+00  0.00000000D+00 -0.49472553D-03
 -0.88684568D-04  0.38390135D-02 -0.58664967D-02 -0.10207450D-02 -0.49096178D-02
 -0.36699959D-02  0.79602212D-02  0.17408974D-02 -0.19773839D-03 -0.20456728D-04
 -0.00000000D+00  0.00000000D+00  0.25348377D-04 -0.00000000D+00 -0.00000000D+00
 -0.10653590D-03  0.00000000D+00  0.00000000D+00  0.42075002D-04 -0.00000000D+00
 -0.00000000D+00  0.79136616D-07  0.41492792D-08  0.41492792D-08  0.00000000D+00
 -0.00000000D+00 -0.00000000D+00 -0.91501963D-07  0.97945422D-07  0.97945422D-07
  0.00000000D+00  0.00000000D+00 -0.00000000D+00
MO    4     MO 0.0        OCC NO =    0.0000000  ORB. ENERGY =    0.005922
 -0.00000000D+00 -0.00000000D+00  0.00000000D+00 -0.00000000D+00  0.00000000D+00
  0.00000000D+00 -0.00000000D+00 -0.00000000D+00  0.00000000D+00 -0.00000000D+00
  0.00000000D+00 -0.36724915D-06 -0.11534938D-06  0.00000000D+00  0.45549944D-05
  0.14306799D-05  0.00000000D+00 -0.63240101D-04 -0.19863111D-04 -0.00000000D+00
 -0.33482132D-03 -0.10516417D-03  0.00000000D+00 -0.00000000D+00  0.00000000D+00
  0.19029236D-08  0.59768906D-09  0.00000000D+00  0.00000000D+00 -0.00000000D+00
 -0.00000000D+00 -0.60425620D-07 -0.18979109D-07 -0.00000000D+00 -0.00000000D+00
 -0.00000000D+00 -0.00000000D+00  0.00000000D+00  0.00000000D+00  0.00000000D+00
 -0.00000000D+00  0.00000000D+00 -0.00000000D+00  0.00000000D+00 -0.00000000D+00
 -0.36724915D-06 -0.11534938D-06 -0.00000000D+00  0.45549944D-05  0.14306799D-05
 -0.00000000D+00 -0.63240101D-04 -0.19863111D-04  0.00000000D+00 -0.33482132D-03
 -0.10516417D-03  0.00000000D+00 -0.00000000D+00 -0.00000000D+00 -0.19029236D-08
 -0.59768906D-09 -0.00000000D+00  0.00000000D+00 -0.00000000D+00 -0.00000000D+00
  0.60425620D-07  0.18979109D-07  0.00000000D+00
MO    5     MO 0.0        OCC NO =    0.0000000  ORB. ENERGY =    0.005922
 -0.00000000D+00 -0.00000000D+00  0.00000000D+00 -0.00000000D+00 -0.00000000D+00
 -0.00000000D+00  0.00000000D+00  0.00000000D+00 -0.00000000D+00 -0.00000000D+00
  0.00000000D+00 -0.11534938D-06  0.36724915D-06 -0.00000000D+00  0.14306799D-05
 -0.45549944D-05  0.00000000D+00 -0.19863111D-04  0.63240101D-04  0.00000000D+00
 -0.10516417D-03  0.33482132D-03  0.00000000D+00  0.00000000D+00  0.00000000D+00
  0.59768906D-09 -0.19029236D-08 -0.00000000D+00  0.00000000D+00  0.00000000D+00
  0.00000000D+00 -0.18979109D-07  0.60425620D-07  0.00000000D+00 -0.00000000D+00
 -0.00000000D+00 -0.00000000D+00  0.00000000D+00 -0.00000000D+00  0.00000000D+00
 -0.00000000D+00  0.00000000D+00 -0.00000000D+00 -0.00000000D+00 -0.00000000D+00
 -0.11534938D-06  0.36724915D-06  0.00000000D+00  0.14306799D-05 -0.45549944D-05
  0.00000000D+00 -0.19863111D-04  0.63240101D-04 -0.00000000D+00 -0.10516417D-03
  0.33482132D-03  0.00000000D+00 -0.00000000D+00 -0.00000000D+00 -0.59768906D-09
  0.19029236D-08  0.00000000D+00 -0.00000000D+00 -0.00000000D+00  0.00000000D+00
  0.18979109D-07 -0.60425620D-07 -0.00000000D+00
MO    6     MO 0.0        OCC NO =    0.0000000  ORB. ENERGY =    0.008327
  0.00000000D+00  0.00000000D+00  0.00000000D+00 -0.00000000D+00  0.00000000D+00
 -0.00000000D+00  0.00000000D+00 -0.00000000D+00  0.00000000D+00 -0.00000000D+00
  0.00000000D+00  0.39496834D-05 -0.47637239D-05  0.00000000D+00 -0.11173275D-05
  0.13476113D-05  0.00000000D+00  0.13425945D-04 -0.16193070D-04  0.00000000D+00
  0.41027778D-03 -0.49483716D-03 -0.00000000D+00 -0.00000000D+00 -0.00000000D+00
  0.13768004D-07 -0.16605627D-07  0.00000000D+00  0.00000000D+00 -0.00000000D+00
 -0.00000000D+00  0.72542405D-08 -0.87493627D-08 -0.00000000D+00 -0.00000000D+00
 -0.00000000D+00 -0.00000000D+00  0.00000000D+00 -0.00000000D+00  0.00000000D+00
  0.00000000D+00 -0.00000000D+00  0.00000000D+00 -0.00000000D+00  0.00000000D+00
 -0.39496834D-05  0.47637239D-05  0.00000000D+00  0.11173275D-05 -0.13476113D-05
  0.00000000D+00 -0.13425945D-04  0.16193070D-04 -0.00000000D+00 -0.41027778D-03
  0.49483716D-03 -0.00000000D+00 -0.00000000D+00  0.00000000D+00  0.13768004D-07
 -0.16605627D-07 -0.00000000D+00 -0.00000000D+00 -0.00000000D+00 -0.00000000D+00
  0.72542405D-08 -0.87493627D-08  0.00000000D+00
MO    7     MO 0.0        OCC NO =    0.0000000  ORB. ENERGY =    0.008327
 -0.00000000D+00 -0.00000000D+00 -0.00000000D+00  0.00000000D+00  0.00000000D+00
 -0.00000000D+00 -0.00000000D+00  0.00000000D+00 -0.00000000D+00  0.00000000D+00
 -0.00000000D+00 -0.47637239D-05 -0.39496834D-05 -0.00000000D+00  0.13476113D-05
  0.11173275D-05 -0.00000000D+00 -0.16193070D-04 -0.13425945D-04  0.00000000D+00
 -0.49483716D-03 -0.41027778D-03 -0.00000000D+00  0.00000000D+00 -0.00000000D+00
 -0.16605627D-07 -0.13768004D-07 -0.00000000D+00 -0.00000000D+00  0.00000000D+00
  0.00000000D+00 -0.87493627D-08 -0.72542405D-08 -0.00000000D+00  0.00000000D+00
  0.00000000D+00  0.00000000D+00  0.00000000D+00 -0.00000000D+00 -0.00000000D+00
 -0.00000000D+00 -0.00000000D+00  0.00000000D+00 -0.00000000D+00  0.00000000D+00
  0.47637239D-05  0.39496834D-05 -0.00000000D+00 -0.13476113D-05 -0.11173275D-05
  0.00000000D+00  0.16193070D-04  0.13425945D-04 -0.00000000D+00  0.49483716D-03
  0.41027778D-03 -0.00000000D+00  0.00000000D+00  0.00000000D+00 -0.16605627D-07
 -0.13768004D-07  0.00000000D+00  0.00000000D+00  0.00000000D+00 -0.00000000D+00
 -0.87493627D-08 -0.72542405D-08  0.00000000D+00
MO    8     MO 0.0        OCC NO =    0.0000000  ORB. ENERGY =    0.009174
 -0.19246989D-04  0.84110004D-05  0.10204266D-01  0.15086043D-02 -0.10848592D-01
 -0.80234566D-03 -0.80563789D-02  0.12069797D-01  0.84816465D-03  0.28710913D-03
  0.19366934D-05 -0.00000000D+00 -0.00000000D+00 -0.16172732D-05  0.00000000D+00
  0.00000000D+00  0.23503937D-03 -0.00000000D+00 -0.00000000D+00  0.26308362D-03
  0.00000000D+00  0.00000000D+00  0.16973207D-07  0.30241790D-07  0.30241790D-07
 -0.00000000D+00 -0.00000000D+00  0.00000000D+00  0.29442133D-06  0.12964962D-06
  0.12964962D-06  0.00000000D+00  0.00000000D+00 -0.00000000D+00  0.19246989D-04
 -0.84110004D-05 -0.10204266D-01 -0.15086043D-02  0.10848592D-01  0.80234566D-03
  0.80563789D-02 -0.12069797D-01 -0.84816465D-03 -0.28710913D-03  0.19366934D-05
  0.00000000D+00  0.00000000D+00 -0.16172732D-05 -0.00000000D+00 -0.00000000D+00
  0.23503937D-03  0.00000000D+00  0.00000000D+00  0.26308362D-03 -0.00000000D+00
 -0.00000000D+00 -0.16973207D-07 -0.30241790D-07 -0.30241790D-07 -0.00000000D+00
 -0.00000000D+00  0.00000000D+00 -0.29442133D-06 -0.12964962D-06 -0.12964962D-06
  0.00000000D+00  0.00000000D+00 -0.00000000D+00
MO    9     MO 0.0        OCC NO =    0.0000000  ORB. ENERGY =    0.009561
 -0.26425265D-03  0.44658638D-03  0.15759223D-02 -0.73953074D-02  0.88536187D-02
 -0.22680299D-02  0.53038904D-02 -0.64630294D-02  0.25534928D-03 -0.38405969D-03
  0.20299564D-04  0.00000000D+00 -0.00000000D+00 -0.22051519D-04  0.00000000D+00
  0.00000000D+00  0.10547916D-03 -0.00000000D+00 -0.00000000D+00 -0.63138609D-03
 -0.00000000D+00  0.00000000D+00  0.71296926D-07 -0.35447844D-08 -0.35447844D-08
  0.00000000D+00 -0.00000000D+00 -0.00000000D+00 -0.24599635D-06 -0.83025976D-07
 -0.83025976D-07  0.00000000D+00  0.00000000D+00  0.00000000D+00 -0.26425265D-03
  0.44658638D-03  0.15759223D-02 -0.73953074D-02  0.88536187D-02 -0.22680299D-02
  0.53038904D-02 -0.64630294D-02  0.25534928D-03 -0.38405969D-03 -0.20299564D-04
 -0.00000000D+00  0.00000000D+00  0.22051519D-04 -0.00000000D+00 -0.00000000D+00
 -0.10547916D-03  0.00000000D+00  0.00000000D+00  0.63138609D-03  0.00000000D+00
  0.00000000D+00  0.71296926D-07 -0.35447844D-08 -0.35447844D-08  0.00000000D+00
 -0.00000000D+00  0.00000000D+00 -0.24599635D-06 -0.83025976D-07 -0.83025976D-07
  0.00000000D+00  0.00000000D+00 -0.00000000D+00
MO   10     MO 0.0        OCC NO =    0.0000000  ORB. ENERGY =    0.013118
 -0.00000000D+00 -0.00000000D+00  0.00000000D+00  0.00000000D+00 -0.00000000D+00
 -0.00000000D+00 -0.00000000D+00  0.00000000D+00  0.00000000D+00 -0.00000000D+00
  0.00000000D+00  0.88432495D-07  0.97493889D-06 -0.00000000D+00 -0.11575423D-05
 -0.12761515D-04 -0.00000000D+00  0.19512062D-04  0.21511391D-03 -0.00000000D+00
 -0.74124139D-04 -0.81719365D-03  0.00000000D+00  0.00000000D+00  0.00000000D+00
 -0.24866579D-09 -0.27414415D-08 -0.00000000D+00  0.00000000D+00  0.00000000D+00
  0.00000000D+00  0.12733541D-07  0.14038301D-06  0.00000000D+00 -0.00000000D+00
 -0.00000000D+00  0.00000000D+00 -0.00000000D+00 -0.00000000D+00 -0.00000000D+00
 -0.00000000D+00 -0.00000000D+00  0.00000000D+00  0.00000000D+00 -0.00000000D+00
  0.88432495D-07  0.97493889D-06 -0.00000000D+00 -0.11575423D-05 -0.12761515D-04
 -0.00000000D+00  0.19512062D-04  0.21511391D-03 -0.00000000D+00 -0.74124139D-04
 -0.81719365D-03  0.00000000D+00 -0.00000000D+00 -0.00000000D+00  0.24866579D-09
  0.27414415D-08  0.00000000D+00  0.00000000D+00  0.00000000D+00  0.00000000D+00
 -0.12733541D-07 -0.14038301D-06 -0.00000000D+00
MO   11     MO 0.0        OCC NO =    0.0000000  ORB. ENERGY =    0.013118
 -0.00000000D+00  0.00000000D+00 -0.00000000D+00  0.00000000D+00 -0.00000000D+00
 -0.00000000D+00 -0.00000000D+00 -0.00000000D+00  0.00000000D+00 -0.00000000D+00
  0.00000000D+00  0.97493889D-06 -0.88432495D-07 -0.00000000D+00 -0.12761515D-04
  0.11575423D-05  0.00000000D+00  0.21511391D-03 -0.19512062D-04 -0.00000000D+00
 -0.81719365D-03  0.74124139D-04  0.00000000D+00 -0.00000000D+00 -0.00000000D+00
 -0.27414415D-08  0.24866579D-09  0.00000000D+00 -0.00000000D+00 -0.00000000D+00
 -0.00000000D+00  0.14038301D-06 -0.12733541D-07  0.00000000D+00 -0.00000000D+00
  0.00000000D+00 -0.00000000D+00  0.00000000D+00 -0.00000000D+00  0.00000000D+00
 -0.00000000D+00 -0.00000000D+00  0.00000000D+00 -0.00000000D+00 -0.00000000D+00
  0.97493889D-06 -0.88432495D-07  0.00000000D+00 -0.12761515D-04  0.11575423D-05
 -0.00000000D+00  0.21511391D-03 -0.19512062D-04 -0.00000000D+00 -0.81719365D-03
  0.74124139D-04  0.00000000D+00 -0.00000000D+00  0.00000000D+00  0.27414415D-08
 -0.24866579D-09 -0.00000000D+00  0.00000000D+00 -0.00000000D+00 -0.00000000D+00
 -0.14038301D-06  0.12733541D-07 -0.00000000D+00
MO   12     MO 0.0        OCC NO =    0.0000000  ORB. ENERGY =    0.013265
  0.16696425D-03 -0.27728699D-03 -0.11456527D-02  0.13220325D-01 -0.18067973D-01
 -0.58293067D-04 -0.10483896D-01  0.15193196D-01  0.85771940D-03  0.43280737D-03
 -0.15126039D-04  0.00000000D+00  0.00000000D+00  0.96603464D-05  0.00000000D+00
 -0.00000000D+00 -0.83723780D-04 -0.00000000D+00  0.00000000D+00 -0.11560316D-03
  0.00000000D+00 -0.00000000D+00 -0.51575216D-07  0.34914812D-08  0.34914812D-08
  0.00000000D+00  0.00000000D+00  0.00000000D+00  0.12282155D-06  0.86997171D-07
  0.86997171D-07  0.00000000D+00 -0.00000000D+00  0.00000000D+00  0.16696425D-03
 -0.27728699D-03 -0.11456527D-02  0.13220325D-01 -0.18067973D-01 -0.58293067D-04
 -0.10483896D-01  0.15193196D-01  0.85771940D-03  0.43280737D-03  0.15126039D-04
 -0.00000000D+00 -0.00000000D+00 -0.96603464D-05 -0.00000000D+00  0.00000000D+00
  0.83723780D-04 -0.00000000D+00 -0.00000000D+00  0.11560316D-03 -0.00000000D+00
  0.00000000D+00 -0.51575216D-07  0.34914812D-08  0.34914812D-08  0.00000000D+00
  0.00000000D+00 -0.00000000D+00  0.12282155D-06  0.86997171D-07  0.86997171D-07
  0.00000000D+00 -0.00000000D+00  0.00000000D+00
MO   13     MO 0.0        OCC NO =    0.0000000  ORB. ENERGY =    0.013894
  0.11233200D-04  0.44868546D-04 -0.23060055D-02 -0.16678939D-03  0.55770143D-03
 -0.32715393D-02 -0.40394783D-03  0.22853080D-02  0.95818197D-03 -0.20294951D-03
 -0.10969921D-05  0.00000000D+00  0.00000000D+00 -0.30403128D-05 -0.00000000D+00
  0.00000000D+00 -0.11944896D-04  0.00000000D+00 -0.00000000D+00 -0.96549710D-03
  0.00000000D+00  0.00000000D+00 -0.14153099D-07 -0.13453888D-07 -0.13453888D-07
  0.00000000D+00  0.00000000D+00 -0.00000000D+00 -0.18640068D-06 -0.16794499D-06
 -0.16794499D-06 -0.00000000D+00  0.00000000D+00  0.00000000D+00 -0.11233200D-04
 -0.44868546D-04  0.23060055D-02  0.16678939D-03 -0.55770143D-03  0.32715393D-02
  0.40394783D-03 -0.22853080D-02 -0.95818197D-03  0.20294951D-03 -0.10969921D-05
 -0.00000000D+00 -0.00000000D+00 -0.30403128D-05  0.00000000D+00 -0.00000000D+00
 -0.11944896D-04 -0.00000000D+00  0.00000000D+00 -0.96549710D-03  0.00000000D+00
  0.00000000D+00  0.14153099D-07  0.13453888D-07  0.13453888D-07  0.00000000D+00
  0.00000000D+00  0.00000000D+00  0.18640068D-06  0.16794499D-06  0.16794499D-06
 -0.00000000D+00 -0.00000000D+00 -0.00000000D+00
MO   14     MO 0.0        OCC NO =    0.0000000  ORB. ENERGY =    0.017919
  0.10709996D-04 -0.82167758D-04 -0.17581782D-01  0.24066415D-01 -0.24269030D-01
  0.30472387D-02 -0.11236740D-01  0.14682122D-01  0.92237893D-04  0.65946749D-03
 -0.11380926D-05  0.00000000D+00  0.00000000D+00  0.53263471D-05 -0.00000000D+00
 -0.00000000D+00 -0.43734819D-03  0.00000000D+00  0.00000000D+00  0.27458720D-03
 -0.00000000D+00 -0.00000000D+00 -0.23291124D-08 -0.23453883D-07 -0.23453883D-07
  0.00000000D+00  0.00000000D+00 -0.00000000D+00 -0.17240592D-06  0.55608744D-07
  0.55608744D-07 -0.00000000D+00 -0.00000000D+00 -0.00000000D+00 -0.10709996D-04
  0.82167758D-04  0.17581782D-01 -0.24066415D-01  0.24269030D-01 -0.30472387D-02
  0.11236740D-01 -0.14682122D-01 -0.92237893D-04 -0.65946749D-03 -0.11380926D-05
 -0.00000000D+00 -0.00000000D+00  0.53263471D-05  0.00000000D+00  0.00000000D+00
 -0.43734819D-03 -0.00000000D+00 -0.00000000D+00  0.27458720D-03  0.00000000D+00
  0.00000000D+00  0.23291124D-08  0.23453883D-07  0.23453883D-07  0.00000000D+00
  0.00000000D+00  0.00000000D+00  0.17240592D-06 -0.55608744D-07 -0.55608744D-07
 -0.00000000D+00 -0.00000000D+00  0.00000000D+00
MO   15     MO 0.0        OCC NO =    0.0000000  ORB. ENERGY =    0.019399
 -0.00000000D+00 -0.00000000D+00 -0.00000000D+00  0.00000000D+00 -0.00000000D+00
  0.00000000D+00 -0.00000000D+00  0.00000000D+00  0.00000000D+00  0.00000000D+00
 -0.00000000D+00 -0.11244941D-03 -0.81023058D-05 -0.00000000D+00  0.97417832D-04
  0.70192371D-05  0.00000000D+00 -0.39277680D-03 -0.28300709D-04 -0.00000000D+00
  0.73711283D-03  0.53111115D-04  0.00000000D+00 -0.00000000D+00 -0.00000000D+00
 -0.40180997D-06 -0.28951573D-07 -0.00000000D+00 -0.00000000D+00 -0.00000000D+00
 -0.00000000D+00  0.67999285D-06  0.48995464D-07  0.00000000D+00  0.00000000D+00
  0.00000000D+00 -0.00000000D+00  0.00000000D+00  0.00000000D+00 -0.00000000D+00
 -0.00000000D+00  0.00000000D+00 -0.00000000D+00  0.00000000D+00 -0.00000000D+00
  0.11244941D-03  0.81023058D-05 -0.00000000D+00 -0.97417832D-04 -0.70192371D-05
 -0.00000000D+00  0.39277680D-03  0.28300709D-04  0.00000000D+00 -0.73711283D-03
 -0.53111115D-04  0.00000000D+00 -0.00000000D+00 -0.00000000D+00 -0.40180997D-06
 -0.28951573D-07  0.00000000D+00  0.00000000D+00 -0.00000000D+00 -0.00000000D+00
  0.67999285D-06  0.48995464D-07 -0.00000000D+00
MO   16     MO 0.0        OCC NO =    0.0000000  ORB. ENERGY =    0.019399
 -0.00000000D+00  0.00000000D+00 -0.00000000D+00  0.00000000D+00 -0.00000000D+00
 -0.00000000D+00 -0.00000000D+00  0.00000000D+00  0.00000000D+00  0.00000000D+00
  0.00000000D+00  0.81023058D-05 -0.11244941D-03  0.00000000D+00 -0.70192371D-05
  0.97417832D-04 -0.00000000D+00  0.28300709D-04 -0.39277680D-03 -0.00000000D+00
 -0.53111115D-04  0.73711283D-03  0.00000000D+00 -0.00000000D+00 -0.00000000D+00
  0.28951573D-07 -0.40180997D-06  0.00000000D+00  0.00000000D+00 -0.00000000D+00
 -0.00000000D+00 -0.48995464D-07  0.67999285D-06 -0.00000000D+00 -0.00000000D+00
 -0.00000000D+00  0.00000000D+00 -0.00000000D+00  0.00000000D+00 -0.00000000D+00
  0.00000000D+00 -0.00000000D+00 -0.00000000D+00  0.00000000D+00 -0.00000000D+00
 -0.81023058D-05  0.11244941D-03  0.00000000D+00  0.70192371D-05 -0.97417832D-04
 -0.00000000D+00 -0.28300709D-04  0.39277680D-03  0.00000000D+00  0.53111115D-04
 -0.73711283D-03  0.00000000D+00 -0.00000000D+00 -0.00000000D+00  0.28951573D-07
 -0.40180997D-06 -0.00000000D+00 -0.00000000D+00 -0.00000000D+00 -0.00000000D+00
 -0.48995464D-07  0.67999285D-06  0.00000000D+00
MO   17     MO 0.0        OCC NO =    0.0000000  ORB. ENERGY =    0.023860
  0.10071869D-02 -0.24871154D-02  0.66895939D-02 -0.10246894D-01  0.84187614D-02
  0.18431782D-02  0.32475370D-02 -0.56288832D-02 -0.78508460D-03 -0.13466013D-04
 -0.72092385D-04  0.00000000D+00  0.00000000D+00  0.76200460D-04 -0.00000000D+00
 -0.00000000D+00 -0.27692875D-03 -0.00000000D+00  0.00000000D+00  0.55031862D-03
  0.00000000D+00  0.00000000D+00 -0.25747934D-06  0.99059928D-08  0.99059928D-08
  0.00000000D+00  0.00000000D+00  0.00000000D+00  0.94319101D-06  0.34315021D-06
  0.34315021D-06 -0.00000000D+00 -0.00000000D+00 -0.00000000D+00  0.10071869D-02
 -0.24871154D-02  0.66895939D-02 -0.10246894D-01  0.84187614D-02  0.18431782D-02
  0.32475370D-02 -0.56288832D-02 -0.78508460D-03 -0.13466013D-04  0.72092385D-04
 -0.00000000D+00 -0.00000000D+00 -0.76200460D-04  0.00000000D+00  0.00000000D+00
  0.27692875D-03  0.00000000D+00 -0.00000000D+00 -0.55031862D-03 -0.00000000D+00
 -0.00000000D+00 -0.25747934D-06  0.99059928D-08  0.99059928D-08  0.00000000D+00
  0.00000000D+00 -0.00000000D+00  0.94319101D-06  0.34315021D-06  0.34315021D-06
 -0.00000000D+00 -0.00000000D+00  0.00000000D+00
MO   18     MO 0.0        OCC NO =    0.0000000  ORB. ENERGY =    0.026289
  0.49366150D-04  0.54833108D-03  0.85347122D-02  0.72672996D-03 -0.69105133D-03
 -0.15910156D-02 -0.36398890D-03  0.12966680D-02  0.43434368D-03 -0.77728622D-04
 -0.46366428D-05 -0.00000000D+00 -0.00000000D+00 -0.42403575D-04  0.00000000D+00
 -0.00000000D+00  0.80584330D-03 -0.00000000D+00  0.00000000D+00 -0.75858214D-03
 -0.00000000D+00 -0.00000000D+00 -0.85516318D-07 -0.36211434D-07 -0.36211434D-07
 -0.00000000D+00 -0.00000000D+00  0.00000000D+00 -0.10047273D-05 -0.12972803D-05
 -0.12972803D-05  0.00000000D+00 -0.00000000D+00 -0.00000000D+00 -0.49366150D-04
 -0.54833108D-03 -0.85347122D-02 -0.72672996D-03  0.69105133D-03  0.15910156D-02
  0.36398890D-03 -0.12966680D-02 -0.43434368D-03  0.77728622D-04 -0.46366428D-05
  0.00000000D+00  0.00000000D+00 -0.42403575D-04 -0.00000000D+00  0.00000000D+00
  0.80584330D-03  0.00000000D+00  0.00000000D+00 -0.75858214D-03  0.00000000D+00
 -0.00000000D+00  0.85516318D-07  0.36211434D-07  0.36211434D-07 -0.00000000D+00
 -0.00000000D+00 -0.00000000D+00  0.10047273D-05  0.12972803D-05  0.12972803D-05
  0.00000000D+00 -0.00000000D+00  0.00000000D+00
MO   19     MO 0.0        OCC NO =    0.0000000  ORB. ENERGY =    0.029312
 -0.37253589D-02 -0.36741628D-02  0.17716054D-01 -0.17798972D-01  0.83143101D-02
  0.52620436D-02  0.19312642D-02 -0.54954272D-02 -0.16433495D-02  0.26607515D-03
  0.65496118D-04  0.00000000D+00 -0.00000000D+00 -0.13045586D-03  0.00000000D+00
  0.00000000D+00  0.71781331D-04 -0.00000000D+00 -0.00000000D+00 -0.17532513D-03
  0.00000000D+00  0.00000000D+00  0.33273439D-06  0.87244239D-07  0.87244239D-07
  0.00000000D+00 -0.00000000D+00 -0.00000000D+00  0.62418237D-06  0.18755128D-05
  0.18755128D-05  0.00000000D+00  0.00000000D+00  0.00000000D+00 -0.37253589D-02
 -0.36741628D-02  0.17716054D-01 -0.17798972D-01  0.83143101D-02  0.52620436D-02
  0.19312642D-02 -0.54954272D-02 -0.16433495D-02  0.26607515D-03 -0.65496118D-04
 -0.00000000D+00  0.00000000D+00  0.13045586D-03 -0.00000000D+00 -0.00000000D+00
 -0.71781331D-04 -0.00000000D+00  0.00000000D+00  0.17532513D-03 -0.00000000D+00
 -0.00000000D+00  0.33273439D-06  0.87244239D-07  0.87244239D-07  0.00000000D+00
 -0.00000000D+00  0.00000000D+00  0.62418237D-06  0.18755128D-05  0.18755128D-05
  0.00000000D+00  0.00000000D+00 -0.00000000D+00
MO   20     MO 0.0        OCC NO =    0.0000000  ORB. ENERGY =    0.038426
 -0.40996223D-03 -0.67438600D-03  0.16215878D-01 -0.10293487D-01 -0.10254876D-02
  0.13989824D-01 -0.19768445D-02 -0.38760161D-02 -0.33234581D-02  0.87142987D-03
  0.38947461D-04 -0.00000000D+00 -0.00000000D+00  0.18691977D-04  0.00000000D+00
  0.00000000D+00 -0.20024427D-03 -0.00000000D+00 -0.00000000D+00  0.21906282D-03
  0.00000000D+00  0.00000000D+00  0.62670665D-06  0.60353528D-06  0.60353528D-06
 -0.00000000D+00 -0.00000000D+00 -0.00000000D+00  0.47817100D-05  0.45441790D-05
  0.45441790D-05  0.00000000D+00  0.00000000D+00  0.00000000D+00  0.40996223D-03
  0.67438600D-03 -0.16215878D-01  0.10293487D-01  0.10254876D-02 -0.13989824D-01
  0.19768445D-02  0.38760161D-02  0.33234581D-02 -0.87142987D-03  0.38947461D-04
  0.00000000D+00  0.00000000D+00  0.18691977D-04 -0.00000000D+00 -0.00000000D+00
 -0.20024427D-03  0.00000000D+00  0.00000000D+00  0.21906282D-03 -0.00000000D+00
 -0.00000000D+00 -0.62670665D-06 -0.60353528D-06 -0.60353528D-06 -0.00000000D+00
 -0.00000000D+00  0.00000000D+00 -0.47817100D-05 -0.45441790D-05 -0.45441790D-05
  0.00000000D+00  0.00000000D+00 -0.00000000D+00
MO   21     MO 0.0        OCC NO =    0.0000000  ORB. ENERGY =    0.039787
 -0.00000000D+00  0.00000000D+00  0.00000000D+00 -0.00000000D+00  0.00000000D+00
 -0.00000000D+00  0.00000000D+00 -0.00000000D+00  0.00000000D+00 -0.00000000D+00
  0.00000000D+00  0.00000000D+00 -0.00000000D+00 -0.00000000D+00 -0.00000000D+00
  0.00000000D+00 -0.00000000D+00 -0.00000000D+00 -0.00000000D+00  0.00000000D+00
  0.00000000D+00  0.00000000D+00  0.00000000D+00 -0.15047388D-08  0.15047388D-08
  0.00000000D+00 -0.00000000D+00  0.95461350D-07  0.00000000D+00  0.20248492D-07
 -0.20248492D-07 -0.00000000D+00  0.00000000D+00 -0.12845742D-05 -0.00000000D+00
  0.00000000D+00 -0.00000000D+00  0.00000000D+00  0.00000000D+00 -0.00000000D+00
  0.00000000D+00  0.00000000D+00  0.00000000D+00  0.00000000D+00 -0.00000000D+00
 -0.00000000D+00  0.00000000D+00  0.00000000D+00  0.00000000D+00 -0.00000000D+00
 -0.00000000D+00 -0.00000000D+00  0.00000000D+00  0.00000000D+00  0.00000000D+00
 -0.00000000D+00  0.00000000D+00 -0.15047388D-08  0.15047388D-08  0.00000000D+00
 -0.00000000D+00  0.95461350D-07 -0.00000000D+00  0.20248492D-07 -0.20248492D-07
 -0.00000000D+00  0.00000000D+00 -0.12845742D-05
MO   22     MO 0.0        OCC NO =    0.0000000  ORB. ENERGY =    0.039787
 -0.00000000D+00  0.00000000D+00 -0.00000000D+00  0.00000000D+00  0.00000000D+00
 -0.00000000D+00  0.00000000D+00  0.00000000D+00  0.00000000D+00 -0.00000000D+00
  0.00000000D+00  0.00000000D+00  0.00000000D+00  0.00000000D+00 -0.00000000D+00
 -0.00000000D+00  0.00000000D+00  0.00000000D+00  0.00000000D+00  0.00000000D+00
 -0.00000000D+00 -0.00000000D+00  0.00000000D+00 -0.47730674D-07  0.47730674D-07
  0.00000000D+00  0.00000000D+00 -0.30094758D-08 -0.00000000D+00  0.64228707D-06
 -0.64228707D-06 -0.00000000D+00 -0.00000000D+00  0.40496988D-07 -0.00000000D+00
  0.00000000D+00 -0.00000000D+00  0.00000000D+00 -0.00000000D+00  0.00000000D+00
 -0.00000000D+00 -0.00000000D+00 -0.00000000D+00  0.00000000D+00 -0.00000000D+00
 -0.00000000D+00 -0.00000000D+00  0.00000000D+00  0.00000000D+00  0.00000000D+00
  0.00000000D+00 -0.00000000D+00 -0.00000000D+00 -0.00000000D+00  0.00000000D+00
  0.00000000D+00  0.00000000D+00 -0.47730674D-07  0.47730674D-07  0.00000000D+00
  0.00000000D+00 -0.30094758D-08  0.00000000D+00  0.64228707D-06 -0.64228707D-06
 -0.00000000D+00 -0.00000000D+00  0.40496988D-07
MO   23     MO 0.0        OCC NO =    0.0000000  ORB. ENERGY =    0.042483
  0.22138898D-03 -0.94749692D-03  0.33381195D-02 -0.24281964D-02 -0.50080195D-02
  0.13038816D-01 -0.28347651D-02 -0.20485073D-02 -0.28892391D-02  0.81741185D-03
 -0.19300418D-04  0.00000000D+00  0.00000000D+00  0.10277264D-03 -0.00000000D+00
 -0.00000000D+00 -0.12555779D-03  0.00000000D+00  0.00000000D+00  0.14039850D-03
  0.00000000D+00 -0.00000000D+00 -0.52216838D-06 -0.48265924D-06 -0.48265924D-06
  0.00000000D+00  0.00000000D+00  0.00000000D+00 -0.50511002D-07 -0.56932267D-06
 -0.56932267D-06 -0.00000000D+00 -0.00000000D+00 -0.00000000D+00 -0.22138898D-03
  0.94749692D-03 -0.33381195D-02  0.24281964D-02  0.50080195D-02 -0.13038816D-01
  0.28347651D-02  0.20485073D-02  0.28892391D-02 -0.81741185D-03 -0.19300418D-04
 -0.00000000D+00 -0.00000000D+00  0.10277264D-03  0.00000000D+00  0.00000000D+00
 -0.12555779D-03 -0.00000000D+00 -0.00000000D+00  0.14039850D-03  0.00000000D+00
 -0.00000000D+00  0.52216838D-06  0.48265924D-06  0.48265924D-06  0.00000000D+00
  0.00000000D+00 -0.00000000D+00  0.50511002D-07  0.56932267D-06  0.56932267D-06
 -0.00000000D+00 -0.00000000D+00  0.00000000D+00
MO   24     MO 0.0        OCC NO =    0.0000000  ORB. ENERGY =    0.043308
  0.11720938D-01 -0.43171425D-02 -0.11462973D-02  0.22345689D-03 -0.16782689D-02
  0.37081568D-02 -0.86021733D-03 -0.49887854D-03 -0.81188881D-03  0.23322139D-03
 -0.44743743D-03  0.00000000D+00  0.00000000D+00  0.14277399D-03 -0.00000000D+00
 -0.00000000D+00 -0.78537713D-04  0.00000000D+00  0.00000000D+00  0.79776294D-04
 -0.00000000D+00 -0.00000000D+00 -0.18809627D-05 -0.14938897D-06 -0.14938897D-06
  0.00000000D+00  0.00000000D+00  0.00000000D+00  0.31718604D-06 -0.10223524D-05
 -0.10223524D-05 -0.00000000D+00 -0.00000000D+00 -0.00000000D+00  0.11720938D-01
 -0.43171425D-02 -0.11462973D-02  0.22345689D-03 -0.16782689D-02  0.37081568D-02
 -0.86021733D-03 -0.49887854D-03 -0.81188881D-03  0.23322139D-03  0.44743743D-03
 -0.00000000D+00 -0.00000000D+00 -0.14277399D-03  0.00000000D+00  0.00000000D+00