[Molden Format]
[Title]
 Molden2AIM, Version 3.1.0 (02/25/2015)           Time: Thu Oct 17 19:54:33 2024

[Atoms] AU
E+       1       4     0.00000000     0.00000000     0.00000000
E+       2       4    34.20000000     0.00000000     0.00000000
[GTO]
    1 0
 S   1 1.0
    0.1000000000D-03      0.1000000000D+01
 S   1 1.0
    0.3000000000D-03      0.1000000000D+01
 S   1 1.0
    0.9000000000D-03      0.1000000000D+01
 S   1 1.0
    0.2700000000D-02      0.1000000000D+01
 S   1 1.0
    0.8100000000D-02      0.1000000000D+01
 S   1 1.0
    0.2430000000D-01      0.1000000000D+01
 S   1 1.0
    0.7290000000D-01      0.1000000000D+01
 S   1 1.0
    0.2187000000D+00      0.1000000000D+01
 S   1 1.0
    0.6561000000D+00      0.1000000000D+01
 S   1 1.0
    0.1968300000D+01      0.1000000000D+01
 P   1 1.0
    0.1000000000D-03      0.1000000000D+01
 P   1 1.0
    0.3000000000D-03      0.1000000000D+01
 P   1 1.0
    0.9000000000D-03      0.1000000000D+01
 P   1 1.0
    0.2700000000D-02      0.1000000000D+01
 D   1 1.0
    0.1000000000D-03      0.1000000000D+01
 D   1 1.0
    0.3000000000D-03      0.1000000000D+01

    2 0
 S   1 1.0
    0.1000000000D-03      0.1000000000D+01
 S   1 1.0
    0.3000000000D-03      0.1000000000D+01
 S   1 1.0
    0.9000000000D-03      0.1000000000D+01
 S   1 1.0
    0.2700000000D-02      0.1000000000D+01
 S   1 1.0
    0.8100000000D-02      0.1000000000D+01
 S   1 1.0
    0.2430000000D-01      0.1000000000D+01
 S   1 1.0
    0.7290000000D-01      0.1000000000D+01
 S   1 1.0
    0.2187000000D+00      0.1000000000D+01
 S   1 1.0
    0.6561000000D+00      0.1000000000D+01
 S   1 1.0
    0.1968300000D+01      0.1000000000D+01
 P   1 1.0
    0.1000000000D-03      0.1000000000D+01
 P   1 1.0
    0.3000000000D-03      0.1000000000D+01
 P   1 1.0
    0.9000000000D-03      0.1000000000D+01
 P   1 1.0
    0.2700000000D-02      0.1000000000D+01
 D   1 1.0
    0.1000000000D-03      0.1000000000D+01
 D   1 1.0
    0.3000000000D-03      0.1000000000D+01


[MO]
 Ene=         -0.00376232
 Spin= Alpha
 Occup=        1.00000000
    1        0.0735860000
    2       -0.0643733100
    3       -0.0009935500
    4       -0.2281287800
    5       -0.2759326600
    6       -0.1898677900
    7       -0.1193273000
    8        0.0962558700
    9        0.0065384700
   10       -0.0000865900
   11       -0.2602243900
   12        0.0000000000
   13        0.0000000000
   14        0.0896377300
   15       -0.0000000000
   16       -0.0000000000
   17       -0.0525521100
   18        0.0000000000
   19       -0.0000000000
   20        0.0111862700
   21       -0.0000000000
   22        0.0000000000
   23       -0.0766322200
   24        0.0023299800
   25        0.0023299800
   26        0.0000000000
   27        0.0000000000
   28       -0.0000000000
   29        0.0476217100
   30        0.0096402100
   31        0.0096402100
   32       -0.0000000000
   33       -0.0000000000
   34        0.0000000000
   35        0.0735860000
   36       -0.0643733100
   37       -0.0009935500
   38       -0.2281287800
   39       -0.2759326600
   40       -0.1898677900
   41       -0.1193273000
   42        0.0962558700
   43        0.0065384700
   44       -0.0000865900
   45        0.2602243900
   46       -0.0000000000
   47       -0.0000000000
   48       -0.0896377300
   49        0.0000000000
   50        0.0000000000
   51        0.0525521100
   52       -0.0000000000
   53       -0.0000000000
   54       -0.0111862700
   55        0.0000000000
   56        0.0000000000
   57       -0.0766322200
   58        0.0023299800
   59        0.0023299800
   60        0.0000000000
   61        0.0000000000
   62        0.0000000000
   63        0.0476217100
   64        0.0096402100
   65        0.0096402100
   66       -0.0000000000
   67        0.0000000000
   68       -0.0000000000
 Ene=         -0.00326181
 Spin= Alpha
 Occup=        0.00000000
    1        0.0020926600
    2        0.0080055900
    3        0.0369971800
    4        0.3002171500
    5        0.2725108600
    6        0.2094187100
    7        0.1224737800
    8       -0.1003468600
    9       -0.0071109600
   10        0.0001319600
   11       -0.0105339700
   12       -0.0000000000
   13       -0.0000000000
   14       -0.0194317900
   15        0.0000000000
   16        0.0000000000
   17        0.0711439600
   18        0.0000000000
   19        0.0000000000
   20        0.0044959100
   21       -0.0000000000
   22       -0.0000000000
   23       -0.0162273800
   24       -0.0078727800
   25       -0.0078727800
   26       -0.0000000000
   27       -0.0000000000
   28        0.0000000000
   29       -0.0277494800
   30       -0.0359968200
   31       -0.0359968200
   32        0.0000000000
   33        0.0000000000
   34        0.0000000000
   35       -0.0020926600
   36       -0.0080055900
   37       -0.0369971800
   38       -0.3002171500
   39       -0.2725108600
   40       -0.2094187100
   41       -0.1224737800
   42        0.1003468600
   43        0.0071109600
   44       -0.0001319600
   45       -0.0105339700
   46        0.0000000000
   47        0.0000000000
   48       -0.0194317900
   49       -0.0000000000
   50       -0.0000000000
   51        0.0711439600
   52        0.0000000000
   53       -0.0000000000
   54        0.0044959100
   55       -0.0000000000
   56        0.0000000000
   57        0.0162273800
   58        0.0078727800
   59        0.0078727800
   60       -0.0000000000
   61       -0.0000000000
   62        0.0000000000
   63        0.0277494800
   64        0.0359968200
   65        0.0359968200
   66        0.0000000000
   67        0.0000000000
   68       -0.0000000000
 Ene=          0.00412868
 Spin= Alpha
 Occup=        0.00000000
    1       -0.7240375400
    2       -0.0285110800
    3        1.0647634600
    4       -0.7505446300
    5       -0.0420595300
    6       -0.1116930100
    7       -0.0360310600
    8        0.0345407400
    9        0.0033521100
   10       -0.0001709700
   11        1.6251295200
   12        0.0000000000
   13       -0.0000000000
   14       -0.5098350500
   15       -0.0000000000
   16       -0.0000000000
   17        0.4887762600
   18        0.0000000000
   19       -0.0000000000
   20       -0.0497200700
   21       -0.0000000000
   22        0.0000000000
   23        0.5116140300
   24        0.0241898200
   25        0.0241898200
   26        0.0000000000
   27       -0.0000000000
   28       -0.0000000000
   29       -0.1059687600
   30        0.0848075900
   31        0.0848075900
   32       -0.0000000000
   33       -0.0000000000
   34        0.0000000000
   35       -0.7240375400
   36       -0.0285110800
   37        1.0647634600
   38       -0.7505446300
   39       -0.0420595300
   40       -0.1116930100
   41       -0.0360310600
   42        0.0345407400
   43        0.0033521100
   44       -0.0001709700
   45       -1.6251295200
   46       -0.0000000000
   47        0.0000000000
   48        0.5098350500
   49        0.0000000000
   50        0.0000000000
   51       -0.4887762600
   52       -0.0000000000
   53        0.0000000000
   54        0.0497200700
   55        0.0000000000
   56       -0.0000000000
   57        0.5116140300
   58        0.0241898200
   59        0.0241898200
   60        0.0000000000
   61       -0.0000000000
   62       -0.0000000000
   63       -0.1059687600
   64        0.0848075900
   65        0.0848075900
   66       -0.0000000000
   67       -0.0000000000
   68        0.0000000000
 Ene=          0.00548218
 Spin= Alpha
 Occup=        0.00000000
    1       -0.0000000000
    2        0.0000000000
    3       -0.0000000000
    4        0.0000000000
    5       -0.0000000000
    6        0.0000000000
    7       -0.0000000000
    8        0.0000000000
    9       -0.0000000000
   10        0.0000000000
   11        0.0000000000
   12       -0.0077732400
   13        0.0256157100
   14       -0.0000000000
   15        0.0252811300
   16       -0.0833106600
   17       -0.0000000000
   18       -0.0911514300
   19        0.3003776400
   20        0.0000000000
   21       -0.1091962700
   22        0.3598420400
   23        0.0000000000
   24       -0.0000000000
   25       -0.0000000000
   26        0.0004917500
   27       -0.0016204800
   28       -0.0000000000
   29       -0.0000000000
   30       -0.0000000000
   31       -0.0000000000
   32       -0.0080919000
   33        0.0266658100
   34        0.0000000000
   35       -0.0000000000
   36        0.0000000000
   37        0.0000000000
   38       -0.0000000000
   39       -0.0000000000
   40        0.0000000000
   41        0.0000000000
   42       -0.0000000000
   43        0.0000000000
   44       -0.0000000000
   45       -0.0000000000
   46       -0.0077732400
   47        0.0256157100
   48        0.0000000000
   49        0.0252811300
   50       -0.0833106600
   51       -0.0000000000
   52       -0.0911514300
   53        0.3003776400
   54        0.0000000000
   55       -0.1091962700
   56        0.3598420400
   57        0.0000000000
   58        0.0000000000
   59        0.0000000000
   60       -0.0004917500
   61        0.0016204800
   62        0.0000000000
   63       -0.0000000000
   64       -0.0000000000
   65       -0.0000000000
   66        0.0080919000
   67       -0.0266658100
   68       -0.0000000000
 Ene=          0.00548218
 Spin= Alpha
 Occup=        0.00000000
    1       -0.0000000000
    2       -0.0000000000
    3        0.0000000000
    4       -0.0000000000
    5       -0.0000000000
    6        0.0000000000
    7       -0.0000000000
    8        0.0000000000
    9       -0.0000000000
   10        0.0000000000
   11        0.0000000000
   12       -0.0256157100
   13       -0.0077732400
   14        0.0000000000
   15        0.0833106600
   16        0.0252811300
   17        0.0000000000
   18       -0.3003776400
   19       -0.0911514300
   20        0.0000000000
   21       -0.3598420400
   22       -0.1091962700
   23        0.0000000000
   24        0.0000000000
   25        0.0000000000
   26        0.0016204800
   27        0.0004917500
   28        0.0000000000
   29        0.0000000000
   30        0.0000000000
   31        0.0000000000
   32       -0.0266658100
   33       -0.0080919000
   34       -0.0000000000
   35       -0.0000000000
   36       -0.0000000000
   37       -0.0000000000
   38        0.0000000000
   39       -0.0000000000
   40        0.0000000000
   41       -0.0000000000
   42       -0.0000000000
   43        0.0000000000
   44       -0.0000000000
   45       -0.0000000000
   46       -0.0256157100
   47       -0.0077732400
   48       -0.0000000000
   49        0.0833106600
   50        0.0252811300
   51        0.0000000000
   52       -0.3003776400
   53       -0.0911514300
   54       -0.0000000000
   55       -0.3598420400
   56       -0.1091962700
   57       -0.0000000000
   58       -0.0000000000
   59       -0.0000000000
   60       -0.0016204800
   61       -0.0004917500
   62       -0.0000000000
   63        0.0000000000
   64        0.0000000000
   65        0.0000000000
   66        0.0266658100
   67        0.0080919000
   68        0.0000000000
 Ene=          0.00794739
 Spin= Alpha
 Occup=        0.00000000
    1       -0.0000000000
    2       -0.0000000000
    3        0.0000000000
    4        0.0000000000
    5       -0.0000000000
    6        0.0000000000
    7       -0.0000000000
    8        0.0000000000
    9        0.0000000000
   10       -0.0000000000
   11       -0.0000000000
   12       -0.5391255100
   13       -0.6864325400
   14       -0.0000000000
   15        0.0832489600
   16        0.1059953400
   17        0.0000000000
   18       -0.0932864800
   19       -0.1187754500
   20       -0.0000000000
   21       -0.4481262100
   22       -0.5705692100
   23       -0.0000000000
   24        0.0000000000
   25        0.0000000000
   26       -0.0903820000
   27       -0.1150773800
   28        0.0000000000
   29       -0.0000000000
   30       -0.0000000000
   31       -0.0000000000
   32        0.0117549600
   33        0.0149668100
   34       -0.0000000000
   35        0.0000000000
   36        0.0000000000
   37       -0.0000000000
   38        0.0000000000
   39        0.0000000000
   40       -0.0000000000
   41        0.0000000000
   42       -0.0000000000
   43        0.0000000000
   44       -0.0000000000
   45       -0.0000000000
   46        0.5391255100
   47        0.6864325400
   48       -0.0000000000
   49       -0.0832489600
   50       -0.1059953400
   51        0.0000000000
   52        0.0932864800
   53        0.1187754500
   54        0.0000000000
   55        0.4481262100
   56        0.5705692100
   57        0.0000000000
   58       -0.0000000000
   59       -0.0000000000
   60       -0.0903820000
   61       -0.1150773800
   62       -0.0000000000
   63        0.0000000000
   64        0.0000000000
   65        0.0000000000
   66        0.0117549600
   67        0.0149668100
   68        0.0000000000
 Ene=          0.00794739
 Spin= Alpha
 Occup=        0.00000000
    1        0.0000000000
    2       -0.0000000000
    3        0.0000000000
    4       -0.0000000000
    5        0.0000000000
    6       -0.0000000000
    7        0.0000000000
    8       -0.0000000000
    9       -0.0000000000
   10        0.0000000000
   11        0.0000000000
   12        0.6864325400
   13       -0.5391255100
   14       -0.0000000000
   15       -0.1059953400
   16        0.0832489600
   17        0.0000000000
   18        0.1187754500
   19       -0.0932864800
   20        0.0000000000
   21        0.5705692100
   22       -0.4481262100
   23        0.0000000000
   24       -0.0000000000
   25       -0.0000000000
   26        0.1150773800
   27       -0.0903820000
   28        0.0000000000
   29       -0.0000000000
   30       -0.0000000000
   31       -0.0000000000
   32       -0.0149668100
   33        0.0117549600
   34        0.0000000000
   35       -0.0000000000
   36        0.0000000000
   37       -0.0000000000
   38        0.0000000000
   39        0.0000000000
   40       -0.0000000000
   41        0.0000000000
   42       -0.0000000000
   43        0.0000000000
   44       -0.0000000000
   45        0.0000000000
   46       -0.6864325400
   47        0.5391255100
   48       -0.0000000000
   49        0.1059953400
   50       -0.0832489600
   51        0.0000000000
   52       -0.1187754500
   53        0.0932864800
   54       -0.0000000000
   55       -0.5705692100
   56        0.4481262100
   57       -0.0000000000
   58        0.0000000000
   59        0.0000000000
   60        0.1150773800
   61       -0.0903820000
   62       -0.0000000000
   63        0.0000000000
   64        0.0000000000
   65        0.0000000000
   66       -0.0149668100
   67        0.0117549600
   68        0.0000000000
 Ene=          0.00877307
 Spin= Alpha
 Occup=        0.00000000
    1        0.0240905100
    2       -0.0081407400
    3       -3.1228763400
    4       -0.1560344500
    5        0.5542072500
    6        0.0184696800
    7        0.0805832800
    8       -0.0531162600
    9       -0.0016706800
   10       -0.0002377100
   11       -0.1285508100
   12       -0.0000000000
   13       -0.0000000000
   14        0.0322273400
   15        0.0000000000
   16        0.0000000000
   17       -1.1740836000
   18       -0.0000000000
   19       -0.0000000000
   20       -0.2391315600
   21       -0.0000000000
   22       -0.0000000000
   23       -0.0992534600
   24       -0.1862280700
   25       -0.1862280700
   26       -0.0000000000
   27       -0.0000000000
   28        0.0000000000
   29       -0.2603887300
   30       -0.1071457400
   31       -0.1071457400
   32        0.0000000000
   33        0.0000000000
   34       -0.0000000000
   35       -0.0240905100
   36        0.0081407400
   37        3.1228763400
   38        0.1560344500
   39       -0.5542072500
   40       -0.0184696800
   41       -0.0805832800
   42        0.0531162600
   43        0.0016706800
   44        0.0002377100
   45       -0.1285508100
   46        0.0000000000
   47        0.0000000000
   48        0.0322273400
   49       -0.0000000000
   50       -0.0000000000
   51       -1.1740836000
   52        0.0000000000
   53        0.0000000000
   54       -0.2391315600
   55       -0.0000000000
   56        0.0000000000
   57        0.0992534600
   58        0.1862280700
   59        0.1862280700
   60       -0.0000000000
   61       -0.0000000000
   62        0.0000000000
   63        0.2603887300
   64        0.1071457400
   65        0.1071457400
   66        0.0000000000
   67        0.0000000000
   68       -0.0000000000
 Ene=          0.00920817
 Spin= Alpha
 Occup=        0.00000000
    1       -0.3137276800
    2        0.2468042700
    3        0.3242507400
    4       -0.5790552000
    5        0.3153259300
    6       -0.0473177100
    7        0.0367723900
    8       -0.0185261900
    9        0.0006099300
   10       -0.0002527900
   11        1.2703879800
   12        0.0000000000
   13       -0.0000000000
   14       -0.3578913900
   15       -0.0000000000
   16        0.0000000000
   17        0.3719198000
   18        0.0000000000
   19       -0.0000000000
   20       -0.7044975100
   21       -0.0000000000
   22        0.0000000000
   23        0.3653027000
   24       -0.0181068300
   25       -0.0181068300
   26        0.0000000000
   27       -0.0000000000
   28       -0.0000000000
   29       -0.1964240200
   30       -0.0610369200
   31       -0.0610369200
   32       -0.0000000000
   33        0.0000000000
   34        0.0000000000
   35       -0.3137276800
   36        0.2468042700
   37        0.3242507400
   38       -0.5790552000
   39        0.3153259300
   40       -0.0473177100
   41        0.0367723900
   42       -0.0185261900
   43        0.0006099300
   44       -0.0002527900
   45       -1.2703879800
   46       -0.0000000000
   47        0.0000000000
   48        0.3578913900
   49        0.0000000000
   50       -0.0000000000
   51       -0.3719198000
   52       -0.0000000000
   53        0.0000000000
   54        0.7044975100
   55        0.0000000000
   56       -0.0000000000
   57        0.3653027000
   58       -0.0181068300
   59       -0.0181068300
   60        0.0000000000
   61       -0.0000000000
   62       -0.0000000000
   63       -0.1964240200
   64       -0.0610369200
   65       -0.0610369200
   66       -0.0000000000
   67        0.0000000000
   68        0.0000000000
 Ene=          0.01260420
 Spin= Alpha
 Occup=        0.00000000
    1       -0.3209923100
    2        0.2765651000
    3        0.3130227700
    4       -1.6586007800
    5        1.0134927100
    6       -0.0123190100
    7        0.1159842000
    8       -0.0724699100
    9       -0.0015110300
   10       -0.0004365700
   11        1.5389282500
   12        0.0000000000
   13       -0.0000000000
   14       -0.2800970200
   15       -0.0000000000
   16       -0.0000000000
   17        0.4661017300
   18        0.0000000000
   19        0.0000000000
   20        0.0337970100
   21       -0.0000000000
   22       -0.0000000000
   23        0.4306820400
   24       -0.0295354600
   25       -0.0295354600
   26        0.0000000000
   27       -0.0000000000
   28        0.0000000000
   29       -0.1807697200
   30       -0.1059276300
   31       -0.1059276300
   32        0.0000000000
   33        0.0000000000
   34       -0.0000000000
   35       -0.3209923100
   36        0.2765651000
   37        0.3130227700
   38       -1.6586007800
   39        1.0134927100
   40       -0.0123190100
   41        0.1159842000
   42       -0.0724699100
   43       -0.0015110300
   44       -0.0004365700
   45       -1.5389282500
   46       -0.0000000000
   47        0.0000000000
   48        0.2800970200
   49       -0.0000000000
   50       -0.0000000000
   51       -0.4661017300
   52        0.0000000000
   53        0.0000000000
   54       -0.0337970100
   55       -0.0000000000
   56       -0.0000000000
   57        0.4306820400
   58       -0.0295354600
   59       -0.0295354600
   60        0.0000000000
   61       -0.0000000000
   62       -0.0000000000
   63       -0.1807697200
   64       -0.1059276300
   65       -0.1059276300
   66       -0.0000000000
   67       -0.0000000000
   68        0.0000000000
 Ene=          0.01260550
 Spin= Alpha
 Occup=        0.00000000
    1        0.0000000000
    2       -0.0000000000
    3       -0.0000000000
    4        0.0000000000
    5       -0.0000000000
    6        0.0000000000
    7       -0.0000000000
    8        0.0000000000
    9        0.0000000000
   10        0.0000000000
   11       -0.0000000000
   12        0.0025308400
   13        0.0653527100
   14        0.0000000000
   15       -0.0085666000
   16       -0.2212112900
   17       -0.0000000000
   18        0.0371109600
   19        0.9582990200
   20       -0.0000000000
   21       -0.0360823600
   22       -0.9317381400
   23       -0.0000000000
   24        0.0000000000
   25        0.0000000000
   26       -0.0000288600
   27       -0.0007451900
   28       -0.0000000000
   29        0.0000000000
   30        0.0000000000
   31        0.0000000000
   32        0.0024406800
   33        0.0630244800
   34        0.0000000000
   35        0.0000000000
   36       -0.0000000000
   37       -0.0000000000
   38        0.0000000000
   39       -0.0000000000
   40        0.0000000000
   41       -0.0000000000
   42        0.0000000000
   43        0.0000000000
   44        0.0000000000
   45        0.0000000000
   46        0.0025308400
   47        0.0653527100
   48       -0.0000000000
   49       -0.0085666000
   50       -0.2212112900
   51        0.0000000000
   52        0.0371109600
   53        0.9582990200
   54        0.0000000000
   55       -0.0360823600
   56       -0.9317381400
   57       -0.0000000000
   58        0.0000000000
   59        0.0000000000
   60        0.0000288600
   61        0.0007451900
   62        0.0000000000
   63        0.0000000000
   64        0.0000000000
   65        0.0000000000
   66       -0.0024406800
   67       -0.0630244800
   68       -0.0000000000
 Ene=          0.01260550
 Spin= Alpha
 Occup=        0.00000000
    1        0.0000000000
    2       -0.0000000000
    3       -0.0000000000
    4        0.0000000000
    5       -0.0000000000
    6        0.0000000000
    7       -0.0000000000
    8        0.0000000000
    9       -0.0000000000
   10        0.0000000000
   11       -0.0000000000
   12       -0.0653527100
   13        0.0025308400
   14        0.0000000000
   15        0.2212112900
   16       -0.0085666000
   17       -0.0000000000
   18       -0.9582990200
   19        0.0371109600
   20        0.0000000000
   21        0.9317381400
   22       -0.0360823600
   23       -0.0000000000
   24        0.0000000000
   25        0.0000000000
   26        0.0007451900
   27       -0.0000288600
   28        0.0000000000
   29        0.0000000000
   30        0.0000000000
   31        0.0000000000
   32       -0.0630244800
   33        0.0024406800
   34       -0.0000000000
   35        0.0000000000
   36       -0.0000000000
   37       -0.0000000000
   38        0.0000000000
   39       -0.0000000000
   40        0.0000000000
   41       -0.0000000000
   42        0.0000000000
   43       -0.0000000000
   44        0.0000000000
   45        0.0000000000
   46       -0.0653527100
   47        0.0025308400
   48       -0.0000000000
   49        0.2212112900
   50       -0.0085666000
   51        0.0000000000
   52       -0.9582990200
   53        0.0371109600
   54        0.0000000000
   55        0.9317381400
   56       -0.0360823600
   57       -0.0000000000
   58       -0.0000000000
   59       -0.0000000000
   60       -0.0007451900
   61        0.0000288600
   62       -0.0000000000
   63       -0.0000000000
   64       -0.0000000000
   65       -0.0000000000
   66        0.0630244800
   67       -0.0024406800
   68        0.0000000000
 Ene=          0.01317190
 Spin= Alpha
 Occup=        0.00000000
    1        0.0173702000
    2        0.0129246900
    3       -1.5286337500
    4        0.0947806900
    5       -0.0064944500
    6       -0.0770206200
    7       -0.0089222300
    8        0.0133866300
    9        0.0019801200
   10       -0.0001607400
   11       -0.0911621900
   12        0.0000000000
   13       -0.0000000000
   14       -0.0235029900
   15       -0.0000000000
   16       -0.0000000000
   17       -0.4532102000
   18       -0.0000000000
   19       -0.0000000000
   20       -1.1677164100
   21        0.0000000000
   22       -0.0000000000
   23       -0.0902019700
   24       -0.1164051500
   25       -0.1164051500
   26        0.0000000000
   27       -0.0000000000
   28        0.0000000000
   29       -0.1951852100
   30       -0.1349871200
   31       -0.1349871200
   32       -0.0000000000
   33       -0.0000000000
   34       -0.0000000000
   35       -0.0173702000
   36       -0.0129246900
   37        1.5286337500
   38       -0.0947806900
   39        0.0064944500
   40        0.0770206200
   41        0.0089222300
   42       -0.0133866300
   43       -0.0019801200
   44        0.0001607400
   45       -0.0911621900
   46       -0.0000000000
   47        0.0000000000
   48       -0.0235029900
   49        0.0000000000
   50        0.0000000000
   51       -0.4532102000
   52       -0.0000000000
   53        0.0000000000
   54       -1.1677164100
   55        0.0000000000
   56       -0.0000000000
   57        0.0902019700
   58        0.1164051500
   59        0.1164051500
   60        0.0000000000
   61       -0.0000000000
   62       -0.0000000000
   63        0.1951852100
   64        0.1349871200
   65        0.1349871200
   66       -0.0000000000
   67       -0.0000000000
   68        0.0000000000
 Ene=          0.01769920
 Spin= Alpha
 Occup=        0.00000000
    1       -0.0117539900
    2        0.0417965700
    3        5.0222152400
    4       -2.9658816200
    5        1.3313915500
    6       -0.0940812300
    7        0.1169116400
    8       -0.0651035700
    9        0.0002534700
   10       -0.0006232800
   11        0.0661591100
   12       -0.0000000000
   13        0.0000000000
   14       -0.0754853200
   15        0.0000000000
   16        0.0000000000
   17        1.9572467000
   18       -0.0000000000
   19        0.0000000000
   20       -0.4291591300
   21        0.0000000000
   22       -0.0000000000
   23        0.0072068000
   24        0.1271003900
   25        0.1271003900
   26       -0.0000000000
   27        0.0000000000
   28       -0.0000000000
   29        0.1424997000
   30       -0.0479080100
   31       -0.0479080100
   32        0.0000000000
   33        0.0000000000
   34        0.0000000000
   35        0.0117539900
   36       -0.0417965700
   37       -5.0222152400
   38        2.9658816200
   39       -1.3313915500
   40        0.0940812300
   41       -0.1169116400
   42        0.0651035700
   43       -0.0002534700
   44        0.0006232800
   45        0.0661591100
   46        0.0000000000
   47       -0.0000000000
   48       -0.0754853200
   49       -0.0000000000
   50       -0.0000000000
   51        1.9572467000
   52        0.0000000000
   53       -0.0000000000
   54       -0.4291591300
   55       -0.0000000000
   56        0.0000000000
   57       -0.0072068000
   58       -0.1271003900
   59       -0.1271003900
   60       -0.0000000000
   61        0.0000000000
   62        0.0000000000
   63       -0.1424997000
   64        0.0479080100
   65        0.0479080100
   66        0.0000000000
   67        0.0000000000
   68       -0.0000000000
 Ene=          0.01872270
 Spin= Alpha
 Occup=        0.00000000
    1        0.0000000000
    2        0.0000000000
    3        0.0000000000
    4       -0.0000000000
    5        0.0000000000
    6       -0.0000000000
    7        0.0000000000
    8       -0.0000000000
    9       -0.0000000000
   10       -0.0000000000
   11        0.0000000000
   12        5.8430156800
   13        7.2556822800
   14        0.0000000000
   15       -1.2691134700
   16       -1.5759471800
   17        0.0000000000
   18        1.1474752000
   19        1.4249004200
   20       -0.0000000000
   21       -0.5445248500
   22       -0.6761746900
   23        0.0000000000
   24        0.0000000000
   25        0.0000000000
   26        0.9887822300
   27        1.2278402300
   28        0.0000000000
   29        0.0000000000
   30        0.0000000000
   31        0.0000000000
   32       -0.2582438700
   33       -0.3206795200
   34       -0.0000000000
   35       -0.0000000000
   36       -0.0000000000
   37       -0.0000000000
   38        0.0000000000
   39       -0.0000000000
   40        0.0000000000
   41       -0.0000000000
   42        0.0000000000
   43        0.0000000000
   44        0.0000000000
   45        0.0000000000
   46       -5.8430156800
   47       -7.2556822800
   48        0.0000000000
   49        1.2691134700
   50        1.5759471800
   51        0.0000000000
   52       -1.1474752000
   53       -1.4249004200
   54       -0.0000000000
   55        0.5445248500
   56        0.6761746900
   57        0.0000000000
   58       -0.0000000000
   59       -0.0000000000
   60        0.9887822300
   61        1.2278402300
   62       -0.0000000000
   63       -0.0000000000
   64       -0.0000000000
   65       -0.0000000000
   66       -0.2582438700
   67       -0.3206795200
   68       -0.0000000000
 Ene=          0.01872270
 Spin= Alpha
 Occup=        0.00000000
    1       -0.0000000000
    2        0.0000000000
    3       -0.0000000000
    4        0.0000000000
    5       -0.0000000000
    6        0.0000000000
    7       -0.0000000000
    8        0.0000000000
    9        0.0000000000
   10        0.0000000000
   11       -0.0000000000
   12       -7.2556822800
   13        5.8430156800
   14        0.0000000000
   15        1.5759471800
   16       -1.2691134700