[Molden Format]
[Title]
 Molden2AIM, Version 3.1.0 (02/25/2015)           Time: Thu Oct 17 19:54:47 2024

[Atoms] AU
E+       1       4     0.00000000     0.00000000     0.00000000
E+       2       4    37.40000000     0.00000000     0.00000000
[GTO]
    1 0
 S   1 1.0
    0.1000000000D-03      0.1000000000D+01
 S   1 1.0
    0.3000000000D-03      0.1000000000D+01
 S   1 1.0
    0.9000000000D-03      0.1000000000D+01
 S   1 1.0
    0.2700000000D-02      0.1000000000D+01
 S   1 1.0
    0.8100000000D-02      0.1000000000D+01
 S   1 1.0
    0.2430000000D-01      0.1000000000D+01
 S   1 1.0
    0.7290000000D-01      0.1000000000D+01
 S   1 1.0
    0.2187000000D+00      0.1000000000D+01
 S   1 1.0
    0.6561000000D+00      0.1000000000D+01
 S   1 1.0
    0.1968300000D+01      0.1000000000D+01
 P   1 1.0
    0.1000000000D-03      0.1000000000D+01
 P   1 1.0
    0.3000000000D-03      0.1000000000D+01
 P   1 1.0
    0.9000000000D-03      0.1000000000D+01
 P   1 1.0
    0.2700000000D-02      0.1000000000D+01
 D   1 1.0
    0.1000000000D-03      0.1000000000D+01
 D   1 1.0
    0.3000000000D-03      0.1000000000D+01

    2 0
 S   1 1.0
    0.1000000000D-03      0.1000000000D+01
 S   1 1.0
    0.3000000000D-03      0.1000000000D+01
 S   1 1.0
    0.9000000000D-03      0.1000000000D+01
 S   1 1.0
    0.2700000000D-02      0.1000000000D+01
 S   1 1.0
    0.8100000000D-02      0.1000000000D+01
 S   1 1.0
    0.2430000000D-01      0.1000000000D+01
 S   1 1.0
    0.7290000000D-01      0.1000000000D+01
 S   1 1.0
    0.2187000000D+00      0.1000000000D+01
 S   1 1.0
    0.6561000000D+00      0.1000000000D+01
 S   1 1.0
    0.1968300000D+01      0.1000000000D+01
 P   1 1.0
    0.1000000000D-03      0.1000000000D+01
 P   1 1.0
    0.3000000000D-03      0.1000000000D+01
 P   1 1.0
    0.9000000000D-03      0.1000000000D+01
 P   1 1.0
    0.2700000000D-02      0.1000000000D+01
 D   1 1.0
    0.1000000000D-03      0.1000000000D+01
 D   1 1.0
    0.3000000000D-03      0.1000000000D+01


[MO]
 Ene=         -0.00388729
 Spin= Alpha
 Occup=        1.00000000
    1       -0.0456395400
    2        0.0349660300
    3        0.0108262500
    4        0.2014229100
    5        0.2971661000
    6        0.1969335300
    7        0.1222554800
    8       -0.0987595600
    9       -0.0067490000
   10        0.0000937800
   11        0.1467097200
   12        0.0000000000
   13       -0.0000000000
   14       -0.0492329500
   15        0.0000000000
   16       -0.0000000000
   17        0.0372263300
   18        0.0000000000
   19        0.0000000000
   20        0.0169059000
   21        0.0000000000
   22       -0.0000000000
   23        0.0473045400
   24       -0.0013997700
   25       -0.0013997700
   26        0.0000000000
   27       -0.0000000000
   28        0.0000000000
   29       -0.0266748800
   30       -0.0056665900
   31       -0.0056665900
   32        0.0000000000
   33       -0.0000000000
   34       -0.0000000000
   35       -0.0456395400
   36        0.0349660300
   37        0.0108262500
   38        0.2014229100
   39        0.2971661000
   40        0.1969335300
   41        0.1222554800
   42       -0.0987595600
   43       -0.0067490000
   44        0.0000937800
   45       -0.1467097200
   46       -0.0000000000
   47        0.0000000000
   48        0.0492329500
   49       -0.0000000000
   50        0.0000000000
   51       -0.0372263300
   52       -0.0000000000
   53       -0.0000000000
   54       -0.0169059000
   55       -0.0000000000
   56       -0.0000000000
   57        0.0473045400
   58       -0.0013997700
   59       -0.0013997700
   60        0.0000000000
   61       -0.0000000000
   62       -0.0000000000
   63       -0.0266748800
   64       -0.0056665900
   65       -0.0056665900
   66        0.0000000000
   67       -0.0000000000
   68        0.0000000000
 Ene=         -0.00355141
 Spin= Alpha
 Occup=        0.00000000
    1       -0.0008924600
    2       -0.0042718600
    3       -0.0145897900
    4       -0.2692422800
    5       -0.2853073200
    6       -0.2151975300
    7       -0.1241084100
    8        0.1018679100
    9        0.0072573800
   10       -0.0001387800
   11        0.0040429900
   12       -0.0000000000
   13        0.0000000000
   14        0.0098731300
   15        0.0000000000
   16       -0.0000000000
   17       -0.0325488100
   18        0.0000000000
   19        0.0000000000
   20       -0.0449832500
   21       -0.0000000000
   22        0.0000000000
   23        0.0064374200
   24        0.0020984700
   25        0.0020984700
   26       -0.0000000000
   27        0.0000000000
   28       -0.0000000000
   29        0.0109560800
   30        0.0152529800
   31        0.0152529800
   32        0.0000000000
   33       -0.0000000000
   34        0.0000000000
   35        0.0008924600
   36        0.0042718600
   37        0.0145897900
   38        0.2692422800
   39        0.2853073200
   40        0.2151975300
   41        0.1241084100
   42       -0.1018679100
   43       -0.0072573800
   44        0.0001387800
   45        0.0040429900
   46        0.0000000000
   47       -0.0000000000
   48        0.0098731300
   49       -0.0000000000
   50        0.0000000000
   51       -0.0325488100
   52        0.0000000000
   53       -0.0000000000
   54       -0.0449832500
   55       -0.0000000000
   56        0.0000000000
   57       -0.0064374200
   58       -0.0020984700
   59       -0.0020984700
   60       -0.0000000000
   61        0.0000000000
   62        0.0000000000
   63       -0.0109560800
   64       -0.0152529800
   65       -0.0152529800
   66        0.0000000000
   67       -0.0000000000
   68       -0.0000000000
 Ene=          0.00420295
 Spin= Alpha
 Occup=        0.00000000
    1        0.6778507900
    2        0.0690404400
    3       -1.0202040800
    4        0.6639918500
    5        0.0586189300
    6        0.1127936300
    7        0.0372054600
    8       -0.0353075700
    9       -0.0033728100
   10        0.0001665600
   11       -1.3363593200
   12       -0.0000000000
   13       -0.0000000000
   14        0.4198628700
   15        0.0000000000
   16        0.0000000000
   17       -0.4739452600
   18       -0.0000000000
   19       -0.0000000000
   20        0.0461119700
   21        0.0000000000
   22        0.0000000000
   23       -0.4639723800
   24       -0.0257627300
   25       -0.0257627300
   26       -0.0000000000
   27       -0.0000000000
   28        0.0000000000
   29        0.0676242100
   30       -0.0882323100
   31       -0.0882323100
   32        0.0000000000
   33        0.0000000000
   34       -0.0000000000
   35        0.6778507900
   36        0.0690404400
   37       -1.0202040800
   38        0.6639918500
   39        0.0586189300
   40        0.1127936300
   41        0.0372054600
   42       -0.0353075700
   43       -0.0033728100
   44        0.0001665600
   45        1.3363593200
   46        0.0000000000
   47        0.0000000000
   48       -0.4198628700
   49       -0.0000000000
   50       -0.0000000000
   51        0.4739452600
   52        0.0000000000
   53        0.0000000000
   54       -0.0461119700
   55       -0.0000000000
   56       -0.0000000000
   57       -0.4639723800
   58       -0.0257627300
   59       -0.0257627300
   60       -0.0000000000
   61       -0.0000000000
   62       -0.0000000000
   63        0.0676242100
   64       -0.0882323100
   65       -0.0882323100
   66        0.0000000000
   67        0.0000000000
   68        0.0000000000
 Ene=          0.00623854
 Spin= Alpha
 Occup=        0.00000000
    1        0.0000000000
    2       -0.0000000000
    3        0.0000000000
    4       -0.0000000000
    5       -0.0000000000
    6        0.0000000000
    7       -0.0000000000
    8        0.0000000000
    9       -0.0000000000
   10       -0.0000000000
   11       -0.0000000000
   12        0.0264444000
   13       -0.0073585600
   14        0.0000000000
   15       -0.0814111300
   16        0.0226538800
   17       -0.0000000000
   18        0.2822798200
   19       -0.0785486500
   20        0.0000000000
   21        0.3953478100
   22       -0.1100115400
   23       -0.0000000000
   24        0.0000000000
   25        0.0000000000
   26       -0.0096255700
   27        0.0026784600
   28        0.0000000000
   29        0.0000000000
   30        0.0000000000
   31        0.0000000000
   32        0.0340841300
   33       -0.0094844300
   34        0.0000000000
   35        0.0000000000
   36       -0.0000000000
   37        0.0000000000
   38        0.0000000000
   39       -0.0000000000
   40        0.0000000000
   41        0.0000000000
   42       -0.0000000000
   43        0.0000000000
   44       -0.0000000000
   45        0.0000000000
   46        0.0264444000
   47       -0.0073585600
   48       -0.0000000000
   49       -0.0814111300
   50        0.0226538800
   51        0.0000000000
   52        0.2822798200
   53       -0.0785486500
   54       -0.0000000000
   55        0.3953478100
   56       -0.1100115400
   57       -0.0000000000
   58        0.0000000000
   59       -0.0000000000
   60        0.0096255700
   61       -0.0026784600
   62       -0.0000000000
   63        0.0000000000
   64       -0.0000000000
   65       -0.0000000000
   66       -0.0340841300
   67        0.0094844300
   68        0.0000000000
 Ene=          0.00623854
 Spin= Alpha
 Occup=        0.00000000
    1       -0.0000000000
    2        0.0000000000
    3       -0.0000000000
    4       -0.0000000000
    5        0.0000000000
    6       -0.0000000000
    7        0.0000000000
    8       -0.0000000000
    9        0.0000000000
   10       -0.0000000000
   11        0.0000000000
   12       -0.0073585600
   13       -0.0264444000
   14       -0.0000000000
   15        0.0226538800
   16        0.0814111300
   17        0.0000000000
   18       -0.0785486500
   19       -0.2822798200
   20       -0.0000000000
   21       -0.1100115400
   22       -0.3953478100
   23        0.0000000000
   24        0.0000000000
   25        0.0000000000
   26        0.0026784600
   27        0.0096255700
   28       -0.0000000000
   29       -0.0000000000
   30       -0.0000000000
   31       -0.0000000000
   32       -0.0094844300
   33       -0.0340841300
   34        0.0000000000
   35       -0.0000000000
   36        0.0000000000
   37        0.0000000000
   38       -0.0000000000
   39        0.0000000000
   40       -0.0000000000
   41        0.0000000000
   42        0.0000000000
   43        0.0000000000
   44       -0.0000000000
   45       -0.0000000000
   46       -0.0073585600
   47       -0.0264444000
   48        0.0000000000
   49        0.0226538800
   50        0.0814111300
   51       -0.0000000000
   52       -0.0785486500
   53       -0.2822798200
   54        0.0000000000
   55       -0.1100115400
   56       -0.3953478100
   57        0.0000000000
   58       -0.0000000000
   59       -0.0000000000
   60       -0.0026784600
   61       -0.0096255700
   62        0.0000000000
   63       -0.0000000000
   64       -0.0000000000
   65       -0.0000000000
   66        0.0094844300
   67        0.0340841300
   68       -0.0000000000
 Ene=          0.00860817
 Spin= Alpha
 Occup=        0.00000000
    1       -0.0000000000
    2       -0.0000000000
    3       -0.0000000000
    4       -0.0000000000
    5        0.0000000000
    6        0.0000000000
    7        0.0000000000
    8       -0.0000000000
    9        0.0000000000
   10       -0.0000000000
   11        0.0000000000
   12        0.0578278300
   13        0.2432963000
   14       -0.0000000000
   15        0.0029656800
   16        0.0124773700
   17        0.0000000000
   18        0.0155189200
   19        0.0652920300
   20       -0.0000000000
   21        0.1701972400
   22        0.7160627700
   23        0.0000000000
   24       -0.0000000000
   25       -0.0000000000
   26        0.0101391500
   27        0.0426579700
   28        0.0000000000
   29       -0.0000000000
   30       -0.0000000000
   31       -0.0000000000
   32        0.0039247000
   33        0.0165122100
   34        0.0000000000
   35        0.0000000000
   36        0.0000000000
   37        0.0000000000
   38        0.0000000000
   39       -0.0000000000
   40        0.0000000000
   41       -0.0000000000
   42        0.0000000000
   43       -0.0000000000
   44        0.0000000000
   45       -0.0000000000
   46       -0.0578278300
   47       -0.2432963000
   48       -0.0000000000
   49       -0.0029656800
   50       -0.0124773700
   51       -0.0000000000
   52       -0.0155189200
   53       -0.0652920300
   54       -0.0000000000
   55       -0.1701972400
   56       -0.7160627700
   57        0.0000000000
   58        0.0000000000
   59        0.0000000000
   60        0.0101391500
   61        0.0426579700
   62       -0.0000000000
   63        0.0000000000
   64        0.0000000000
   65       -0.0000000000
   66        0.0039247000
   67        0.0165122100
   68       -0.0000000000
 Ene=          0.00860817
 Spin= Alpha
 Occup=        0.00000000
    1        0.0000000000
    2       -0.0000000000
    3        0.0000000000
    4        0.0000000000
    5       -0.0000000000
    6       -0.0000000000
    7       -0.0000000000
    8       -0.0000000000
    9        0.0000000000
   10       -0.0000000000
   11       -0.0000000000
   12       -0.2432963000
   13        0.0578278300
   14       -0.0000000000
   15       -0.0124773700
   16        0.0029656800
   17       -0.0000000000
   18       -0.0652920300
   19        0.0155189200
   20        0.0000000000
   21       -0.7160627700
   22        0.1701972400
   23       -0.0000000000
   24        0.0000000000
   25       -0.0000000000
   26       -0.0426579700
   27        0.0101391500
   28       -0.0000000000
   29       -0.0000000000
   30        0.0000000000
   31        0.0000000000
   32       -0.0165122100
   33        0.0039247000
   34        0.0000000000
   35        0.0000000000
   36        0.0000000000
   37       -0.0000000000
   38        0.0000000000
   39       -0.0000000000
   40       -0.0000000000
   41       -0.0000000000
   42        0.0000000000
   43       -0.0000000000
   44        0.0000000000
   45        0.0000000000
   46        0.2432963000
   47       -0.0578278300
   48       -0.0000000000
   49        0.0124773700
   50       -0.0029656800
   51        0.0000000000
   52        0.0652920300
   53       -0.0155189200
   54       -0.0000000000
   55        0.7160627700
   56       -0.1701972400
   57       -0.0000000000
   58        0.0000000000
   59        0.0000000000
   60       -0.0426579700
   61        0.0101391500
   62        0.0000000000
   63        0.0000000000
   64        0.0000000000
   65        0.0000000000
   66       -0.0165122100
   67        0.0039247000
   68        0.0000000000
 Ene=          0.00939887
 Spin= Alpha
 Occup=        0.00000000
    1       -0.0288123800
    2        0.0021208700
    3        2.5401592500
    4        0.1907211700
    5       -0.5669266900
    6       -0.0203085300
    7       -0.0807522100
    8        0.0532101300
    9        0.0016671000
   10        0.0002400900
   11        0.1400495300
   12       -0.0000000000
   13       -0.0000000000
   14       -0.0241997000
   15        0.0000000000
   16        0.0000000000
   17        0.9787376300
   18       -0.0000000000
   19       -0.0000000000
   20        0.3329463700
   21        0.0000000000
   22        0.0000000000
   23        0.1060018600
   24        0.1813825000
   25        0.1813825000
   26       -0.0000000000
   27       -0.0000000000
   28       -0.0000000000
   29        0.2627438500
   30        0.1221905000
   31        0.1221905000
   32       -0.0000000000
   33        0.0000000000
   34        0.0000000000
   35        0.0288123800
   36       -0.0021208700
   37       -2.5401592500
   38       -0.1907211700
   39        0.5669266900
   40        0.0203085300
   41        0.0807522100
   42       -0.0532101300
   43       -0.0016671000
   44       -0.0002400900
   45        0.1400495300
   46        0.0000000000
   47        0.0000000000
   48       -0.0241997000
   49       -0.0000000000
   50       -0.0000000000
   51        0.9787376300
   52        0.0000000000
   53        0.0000000000
   54        0.3329463700
   55       -0.0000000000
   56       -0.0000000000
   57       -0.1060018600
   58       -0.1813825000
   59       -0.1813825000
   60       -0.0000000000
   61       -0.0000000000
   62       -0.0000000000
   63       -0.2627438500
   64       -0.1221905000
   65       -0.1221905000
   66       -0.0000000000
   67        0.0000000000
   68        0.0000000000
 Ene=          0.00974022
 Spin= Alpha
 Occup=        0.00000000
    1        0.3869406700
    2       -0.2794057300
    3       -0.4762188300
    4        1.0187507500
    5       -0.5293515900
    6        0.0526468400
    7       -0.0606053300
    8        0.0330294800
    9       -0.0004114400
   10        0.0003549600
   11       -1.4497596200
   12        0.0000000000
   13       -0.0000000000
   14        0.3960698900
   15       -0.0000000000
   16       -0.0000000000
   17       -0.5218831800
   18        0.0000000000
   19       -0.0000000000
   20        0.7276248800
   21       -0.0000000000
   22       -0.0000000000
   23       -0.4550734600
   24        0.0230069700
   25        0.0230069700
   26        0.0000000000
   27       -0.0000000000
   28        0.0000000000
   29        0.2225966100
   30        0.0791451800
   31        0.0791451800
   32       -0.0000000000
   33       -0.0000000000
   34       -0.0000000000
   35        0.3869406700
   36       -0.2794057300
   37       -0.4762188300
   38        1.0187507500
   39       -0.5293515900
   40        0.0526468400
   41       -0.0606053300
   42        0.0330294800
   43       -0.0004114400
   44        0.0003549600
   45        1.4497596200
   46       -0.0000000000
   47        0.0000000000
   48       -0.3960698900
   49        0.0000000000
   50        0.0000000000
   51        0.5218831800
   52       -0.0000000000
   53       -0.0000000000
   54       -0.7276248800
   55        0.0000000000
   56       -0.0000000000
   57       -0.4550734600
   58        0.0230069700
   59        0.0230069700
   60        0.0000000000
   61       -0.0000000000
   62       -0.0000000000
   63        0.2225966100
   64        0.0791451800
   65        0.0791451800
   66       -0.0000000000
   67       -0.0000000000
   68        0.0000000000
 Ene=          0.01345640
 Spin= Alpha
 Occup=        0.00000000
    1        0.0000000000
    2        0.0000000000
    3       -0.0000000000
    4       -0.0000000000
    5        0.0000000000
    6       -0.0000000000
    7        0.0000000000
    8       -0.0000000000
    9        0.0000000000
   10        0.0000000000
   11       -0.0000000000
   12       -0.0464785700
   13       -0.0529381300
   14       -0.0000000000
   15        0.1521920800
   16        0.1733436000
   17       -0.0000000000
   18       -0.6450076700
   19       -0.7346503000
   20       -0.0000000000
   21        0.6181630100
   22        0.7040747900
   23       -0.0000000000
   24        0.0000000000
   25        0.0000000000
   26        0.0099094400
   27        0.0112866400
   28        0.0000000000
   29       -0.0000000000
   30        0.0000000000
   31        0.0000000000
   32       -0.0512736400
   33       -0.0583996100
   34       -0.0000000000
   35        0.0000000000
   36        0.0000000000
   37        0.0000000000
   38       -0.0000000000
   39        0.0000000000
   40        0.0000000000
   41        0.0000000000
   42       -0.0000000000
   43       -0.0000000000
   44        0.0000000000
   45        0.0000000000
   46       -0.0464785700
   47       -0.0529381300
   48        0.0000000000
   49        0.1521920800
   50        0.1733436000
   51       -0.0000000000
   52       -0.6450076700
   53       -0.7346503000
   54       -0.0000000000
   55        0.6181630100
   56        0.7040747900
   57       -0.0000000000
   58       -0.0000000000
   59       -0.0000000000
   60       -0.0099094400
   61       -0.0112866400
   62       -0.0000000000
   63       -0.0000000000
   64       -0.0000000000
   65       -0.0000000000
   66        0.0512736400
   67        0.0583996100
   68        0.0000000000
 Ene=          0.01345640
 Spin= Alpha
 Occup=        0.00000000
    1        0.0000000000
    2        0.0000000000
    3       -0.0000000000
    4        0.0000000000
    5       -0.0000000000
    6        0.0000000000
    7       -0.0000000000
    8        0.0000000000
    9       -0.0000000000
   10       -0.0000000000
   11       -0.0000000000
   12       -0.0529381300
   13        0.0464785700
   14        0.0000000000
   15        0.1733436000
   16       -0.1521920800
   17       -0.0000000000
   18       -0.7346503000
   19        0.6450076700
   20       -0.0000000000
   21        0.7040747900
   22       -0.6181630100
   23       -0.0000000000
   24        0.0000000000
   25       -0.0000000000
   26        0.0112866400
   27       -0.0099094400
   28       -0.0000000000
   29        0.0000000000
   30        0.0000000000
   31        0.0000000000
   32       -0.0583996100
   33        0.0512736400
   34        0.0000000000
   35        0.0000000000
   36        0.0000000000
   37        0.0000000000
   38        0.0000000000
   39       -0.0000000000
   40       -0.0000000000
   41       -0.0000000000
   42        0.0000000000
   43       -0.0000000000
   44        0.0000000000
   45        0.0000000000
   46       -0.0529381300
   47        0.0464785700
   48        0.0000000000
   49        0.1733436000
   50       -0.1521920800
   51       -0.0000000000
   52       -0.7346503000
   53        0.6450076700
   54        0.0000000000
   55        0.7040747900
   56       -0.6181630100
   57       -0.0000000000
   58        0.0000000000
   59        0.0000000000
   60       -0.0112866400
   61        0.0099094400
   62        0.0000000000
   63        0.0000000000
   64        0.0000000000
   65        0.0000000000
   66        0.0583996100
   67       -0.0512736400
   68       -0.0000000000
 Ene=          0.01379310
 Spin= Alpha
 Occup=        0.00000000
    1        0.1946241500
    2       -0.1199994300
    3       -0.2974816200
    4        1.5002600600
    5       -0.8957576400
    6       -0.0076118700
    7       -0.0986037500
    8        0.0632775800
    9        0.0017005200
   10        0.0003284900
   11       -0.8426069500
   12        0.0000000000
   13       -0.0000000000
   14        0.1232021300
   15       -0.0000000000
   16        0.0000000000
   17       -0.3275953500
   18        0.0000000000
   19       -0.0000000000
   20       -0.1795379200
   21       -0.0000000000
   22        0.0000000000
   23       -0.2566649300
   24        0.0168009400
   25        0.0168009400
   26        0.0000000000
   27       -0.0000000000
   28       -0.0000000000
   29        0.0745865700
   30        0.0623318800
   31        0.0623318800
   32       -0.0000000000
   33        0.0000000000
   34       -0.0000000000
   35        0.1946241500
   36       -0.1199994300
   37       -0.2974816200
   38        1.5002600600
   39       -0.8957576400
   40       -0.0076118700
   41       -0.0986037500
   42        0.0632775800
   43        0.0017005200
   44        0.0003284900
   45        0.8426069500
   46       -0.0000000000
   47        0.0000000000
   48       -0.1232021300
   49        0.0000000000
   50       -0.0000000000
   51        0.3275953500
   52        0.0000000000
   53       -0.0000000000
   54        0.1795379200
   55       -0.0000000000
   56        0.0000000000
   57       -0.2566649300
   58        0.0168009400
   59        0.0168009400
   60        0.0000000000
   61       -0.0000000000
   62        0.0000000000
   63        0.0745865700
   64        0.0623318800
   65        0.0623318800
   66       -0.0000000000
   67        0.0000000000
   68        0.0000000000
 Ene=          0.01434850
 Spin= Alpha
 Occup=        0.00000000
    1       -0.0136360400
    2       -0.0371873300
    3        0.0908695400
    4        0.1407963000
    5       -0.0659399900
    6        0.0719572000
    7       -0.0002332400
    8       -0.0070554300
    9       -0.0017181200
   10        0.0001801100
   11        0.0634381200
   12       -0.0000000000
   13       -0.0000000000
   14        0.0729506200
   15       -0.0000000000
   16        0.0000000000
   17       -0.1890729100
   18        0.0000000000
   19       -0.0000000000
   20        1.0639585300
   21        0.0000000000
   22        0.0000000000
   23        0.0797273300
   24        0.0563031800
   25        0.0563031800
   26       -0.0000000000
   27       -0.0000000000
   28        0.0000000000
   29        0.1403917400
   30        0.1524730300
   31        0.1524730300
   32       -0.0000000000
   33        0.0000000000
   34       -0.0000000000
   35        0.0136360400
   36        0.0371873300
   37       -0.0908695400
   38       -0.1407963000
   39        0.0659399900
   40       -0.0719572000
   41        0.0002332400
   42        0.0070554300
   43        0.0017181200
   44       -0.0001801100
   45        0.0634381200
   46        0.0000000000
   47        0.0000000000
   48        0.0729506200
   49        0.0000000000
   50       -0.0000000000
   51       -0.1890729100
   52       -0.0000000000
   53        0.0000000000
   54        1.0639585300
   55        0.0000000000
   56       -0.0000000000
   57       -0.0797273300
   58       -0.0563031800
   59       -0.0563031800
   60       -0.0000000000
   61       -0.0000000000
   62       -0.0000000000
   63       -0.1403917400
   64       -0.1524730300
   65       -0.1524730300
   66       -0.0000000000
   67        0.0000000000
   68        0.0000000000
 Ene=          0.01809220
 Spin= Alpha
 Occup=        0.00000000
    1        0.0176697700
    2       -0.0531234400
    3       -4.5444667600
    4        2.7819903000
    5       -1.2171444200
    6        0.0535992300
    7       -0.1092896300
    8        0.0639193900
    9        0.0004675800
   10        0.0005116500
   11       -0.0904562400
   12        0.0000000000
   13        0.0000000000
   14        0.0998045400
   15       -0.0000000000
   16       -0.0000000000
   17       -1.9350687600
   18        0.0000000000
   19        0.0000000000
   20        0.2313614100
   21       -0.0000000000
   22       -0.0000000000
   23       -0.0223399000
   24       -0.1520406000
   25       -0.1520406000
   26        0.0000000000
   27        0.0000000000
   28       -0.0000000000
   29       -0.1651478600
   30        0.0405178900
   31        0.0405178900
   32       -0.0000000000
   33       -0.0000000000
   34        0.0000000000
   35       -0.0176697700
   36        0.0531234400
   37        4.5444667600
   38       -2.7819903000
   39        1.2171444200
   40       -0.0535992300
   41        0.1092896300
   42       -0.0639193900
   43       -0.0004675800
   44       -0.0005116500
   45       -0.0904562400
   46       -0.0000000000
   47       -0.0000000000
   48        0.0998045400
   49        0.0000000000
   50        0.0000000000
   51       -1.9350687600
   52       -0.0000000000
   53       -0.0000000000
   54        0.2313614100
   55        0.0000000000
   56        0.0000000000
   57        0.0223399000
   58        0.1520406000
   59        0.1520406000
   60        0.0000000000
   61        0.0000000000
   62        0.0000000000
   63        0.1651478600
   64       -0.0405178900
   65       -0.0405178900
   66       -0.0000000000
   67       -0.0000000000
   68       -0.0000000000
 Ene=          0.01982270
 Spin= Alpha
 Occup=        0.00000000
    1       -0.0000000000
    2       -0.0000000000
    3        0.0000000000
    4       -0.0000000000
    5        0.0000000000
    6        0.0000000000
    7        0.0000000000
    8       -0.0000000000
    9       -0.0000000000
   10       -0.0000000000
   11        0.0000000000
   12        3.7902184400
   13        6.1084893900
   14       -0.0000000000
   15       -0.8376805600
   16       -1.3500443000
   17        0.0000000000
   18        0.9178192300
   19        1.4791994400
   20        0.0000000000
   21       -0.4376888100
   22       -0.7053993100
   23        0.0000000000
   24       -0.0000000000
   25       -0.0000000000
   26        0.6983760500
   27        1.1255347900
   28        0.0000000000
   29       -0.0000000000
   30       -0.0000000000
   31       -0.0000000000
   32       -0.1667094200
   33       -0.2686765200
   34       -0.0000000000
   35        0.0000000000
   36        0.0000000000
   37       -0.0000000000
   38        0.0000000000
   39       -0.0000000000
   40        0.0000000000
   41       -0.0000000000
   42        0.0000000000
   43       -0.0000000000
   44        0.0000000000
   45       -0.0000000000
   46       -3.7902184400
   47       -6.1084893900
   48       -0.0000000000
   49        0.8376805600
   50        1.3500443000
   51        0.0000000000
   52       -0.9178192300
   53       -1.4791994400
   54       -0.0000000000
   55        0.4376888100
   56        0.7053993100
   57        0.0000000000
   58        0.0000000000
   59        0.0000000000
   60        0.6983760500
   61        1.1255347900
   62       -0.0000000000
   63        0.0000000000
   64        0.0000000000
   65        0.0000000000
   66       -0.1667094200
   67       -0.2686765200
   68        0.0000000000
 Ene=          0.01982270
 Spin= Alpha
 Occup=        0.00000000
    1        0.0000000000
    2        0.0000000000
    3        0.0000000000
    4       -0.0000000000
    5        0.0000000000
    6        0.0000000000
    7        0.0000000000
    8       -0.0000000000
    9        0.0000000000
   10       -0.0000000000
   11       -0.0000000000
   12        6.1084893900
   13       -3.7902184400
   14        0.0000000000
   15       -1.3500443000
   16        0.8376805600