[Molden Format]
[Atoms] AU
E+       1       4     0.00000000     0.00000000     0.00000000
E+       2       4    51.80000000     0.00000000     0.00000000
[GTO]
  1 0
s  1 1.00
   1.0000000000E-04   1.0000000000E+00
s  1 1.00
   3.0000000000E-04   1.0000000000E+00
s  1 1.00
   9.0000000000E-04   1.0000000000E+00
s  1 1.00
   2.7000000000E-03   1.0000000000E+00
s  1 1.00
   8.1000000000E-03   1.0000000000E+00
s  1 1.00
   2.4300000000E-02   1.0000000000E+00
s  1 1.00
   7.2900000000E-02   1.0000000000E+00
s  1 1.00
   2.1870000000E-01   1.0000000000E+00
s  1 1.00
   6.5610000000E-01   1.0000000000E+00
s  1 1.00
   1.9683000000E+00   1.0000000000E+00
p  1 1.00
   1.0000000000E-04   1.0000000000E+00
p  1 1.00
   3.0000000000E-04   1.0000000000E+00
p  1 1.00
   9.0000000000E-04   1.0000000000E+00
p  1 1.00
   2.7000000000E-03   1.0000000000E+00
d  1 1.00
   1.0000000000E-04   1.0000000000E+00
d  1 1.00
   3.0000000000E-04   1.0000000000E+00
 
  2 0
s  1 1.00
   1.0000000000E-04   1.0000000000E+00
s  1 1.00
   3.0000000000E-04   1.0000000000E+00
s  1 1.00
   9.0000000000E-04   1.0000000000E+00
s  1 1.00
   2.7000000000E-03   1.0000000000E+00
s  1 1.00
   8.1000000000E-03   1.0000000000E+00
s  1 1.00
   2.4300000000E-02   1.0000000000E+00
s  1 1.00
   7.2900000000E-02   1.0000000000E+00
s  1 1.00
   2.1870000000E-01   1.0000000000E+00
s  1 1.00
   6.5610000000E-01   1.0000000000E+00
s  1 1.00
   1.9683000000E+00   1.0000000000E+00
p  1 1.00
   1.0000000000E-04   1.0000000000E+00
p  1 1.00
   3.0000000000E-04   1.0000000000E+00
p  1 1.00
   9.0000000000E-04   1.0000000000E+00
p  1 1.00
   2.7000000000E-03   1.0000000000E+00
d  1 1.00
   1.0000000000E-04   1.0000000000E+00
d  1 1.00
   3.0000000000E-04   1.0000000000E+00
 
 
[MO]
Ene=     1.31797E-03
Spin= Alpha
Occup=   1.0000000000
   1       0.14402942
   2       0.11408281
   3      -0.26473879
   4      -0.18505194
   5      -0.18390627
   6      -0.15878930
   7      -0.09455147
   8       0.07718547
   9       0.00539390
  10      -0.00009213
  11      -0.11038489
  12       0.00000000
  13       0.00000000
  14       0.02915426
  15       0.00000000
  16       0.00000000
  17      -0.05951303
  18       0.00000000
  19      -0.00000000
  20      -0.20017499
  21      -0.00000000
  22       0.00000000
  23      -0.06008294
  24      -0.01294367
  25      -0.01294367
  26       0.00000000
  27       0.00000000
  28       0.00000000
  29      -0.04885980
  30      -0.04497461
  31      -0.04497461
  32       0.00000000
  33       0.00000000
  34       0.00000000
  35       0.14402942
  36       0.11408281
  37      -0.26473879
  38      -0.18505194
  39      -0.18390627
  40      -0.15878930
  41      -0.09455147
  42       0.07718547
  43       0.00539390
  44      -0.00009213
  45       0.11038489
  46      -0.00000000
  47      -0.00000000
  48      -0.02915426
  49      -0.00000000
  50      -0.00000000
  51       0.05951303
  52       0.00000000
  53       0.00000000
  54       0.20017499
  55      -0.00000000
  56       0.00000000
  57      -0.06008294
  58      -0.01294367
  59      -0.01294367
  60       0.00000000
  61       0.00000000
  62       0.00000000
  63      -0.04885980
  64      -0.04497461
  65      -0.04497461
  66       0.00000000
  67       0.00000000
  68      -0.00000000
Ene=     1.93915E-03
Spin= Alpha
Occup=   0.0000000000
   1       0.02151558
   2      -1.35103717
   3       0.00397754
   4      -0.35612525
   5      -0.18821227
   6      -0.20053018
   7      -0.10721270
   8       0.08969599
   9       0.00666699
  10      -0.00016364
  11      -0.02488485
  12       0.00000000
  13       0.00000000
  14      -0.75054425
  15      -0.00000000
  16      -0.00000000
  17       0.11830672
  18       0.00000000
  19       0.00000000
  20      -0.24204724
  21      -0.00000000
  22      -0.00000000
  23      -0.02115290
  24      -0.01855930
  25      -0.01855930
  26       0.00000000
  27       0.00000000
  28       0.00000000
  29      -0.24872174
  30      -0.05018447
  31      -0.05018447
  32      -0.00000000
  33       0.00000000
  34      -0.00000000
  35      -0.02151558
  36       1.35103717
  37      -0.00397754
  38       0.35612525
  39       0.18821227
  40       0.20053018
  41       0.10721270
  42      -0.08969599
  43      -0.00666699
  44       0.00016364
  45      -0.02488485
  46      -0.00000000
  47      -0.00000000
  48      -0.75054425
  49       0.00000000
  50       0.00000000
  51       0.11830672
  52       0.00000000
  53      -0.00000000
  54      -0.24204724
  55      -0.00000000
  56       0.00000000
  57       0.02115290
  58       0.01855930
  59       0.01855930
  60       0.00000000
  61      -0.00000000
  62      -0.00000000
  63       0.24872174
  64       0.05018447
  65       0.05018447
  66      -0.00000000
  67       0.00000000
  68       0.00000000
Ene=     5.80014E-03
Spin= Alpha
Occup=   0.0000000000
   1      -0.60915312
   2      -0.16131982
   3       0.92494486
   4      -0.62760364
   5      -0.09740215
   6      -0.16784950
   7      -0.06625683
   8       0.05992278
   9       0.00526071
  10      -0.00022157
  11       0.81288641
  12      -0.00000000
  13      -0.00000000
  14      -0.28932503
  15       0.00000000
  16       0.00000000
  17       0.51059678
  18      -0.00000000
  19      -0.00000000
  20      -0.13282648
  21       0.00000000
  22       0.00000000
  23       0.39294978
  24       0.02793157
  25       0.02793157
  26      -0.00000000
  27      -0.00000000
  28      -0.00000000
  29       0.01980076
  30       0.09079947
  31       0.09079947
  32       0.00000000
  33      -0.00000000
  34       0.00000000
  35      -0.60915312
  36      -0.16131982
  37       0.92494486
  38      -0.62760364
  39      -0.09740215
  40      -0.16784950
  41      -0.06625683
  42       0.05992278
  43       0.00526071
  44      -0.00022157
  45      -0.81288641
  46       0.00000000
  47       0.00000000
  48       0.28932503
  49      -0.00000000
  50      -0.00000000
  51      -0.51059678
  52       0.00000000
  53       0.00000000
  54       0.13282648
  55      -0.00000000
  56       0.00000000
  57       0.39294978
  58       0.02793157
  59       0.02793157
  60      -0.00000000
  61      -0.00000000
  62       0.00000000
  63       0.01980076
  64       0.09079947
  65       0.09079947
  66      -0.00000000
  67      -0.00000000
  68      -0.00000000
Ene=     1.20594E-02
Spin= Alpha
Occup=   0.0000000000
   1      -0.00511820
   2       3.37999975
   3      -0.88990791
   4      -0.31070067
   5       0.60227492
   6       0.07597699
   7       0.10240109
   8      -0.07299572
   9      -0.00340609
  10      -0.00016614
  11      -0.09696013
  12      -0.00000000
  13       0.00000000
  14       1.66948349
  15       0.00000000
  16      -0.00000000
  17      -0.26058444
  18      -0.00000000
  19       0.00000000
  20      -0.44550011
  21       0.00000000
  22      -0.00000000
  23      -0.08461759
  24      -0.06617316
  25      -0.06617316
  26      -0.00000000
  27       0.00000000
  28       0.00000000
  29       0.31765948
  30      -0.12473288
  31      -0.12473288
  32       0.00000000
  33      -0.00000000
  34       0.00000000
  35       0.00511820
  36      -3.37999975
  37       0.88990791
  38       0.31070067
  39      -0.60227492
  40      -0.07597699
  41      -0.10240109
  42       0.07299572
  43       0.00340609
  44       0.00016614
  45      -0.09696013
  46       0.00000000
  47      -0.00000000
  48       1.66948349
  49      -0.00000000
  50       0.00000000
  51      -0.26058444
  52       0.00000000
  53      -0.00000000
  54      -0.44550011
  55      -0.00000000
  56      -0.00000000
  57       0.08461759
  58       0.06617316
  59       0.06617316
  60      -0.00000000
  61       0.00000000
  62      -0.00000000
  63      -0.31765948
  64       0.12473288
  65       0.12473288
  66       0.00000000
  67      -0.00000000
  68       0.00000000
Ene=     1.31454E-02
Spin= Alpha
Occup=   0.0000000000
   1       0.00000000
   2      -0.00000000
   3       0.00000000
   4      -0.00000000
   5      -0.00000000
   6       0.00000000
   7      -0.00000000
   8      -0.00000000
   9       0.00000000
  10      -0.00000000
  11       0.00000000
  12      -0.05176594
  13       0.00859376
  14      -0.00000000
  15       0.13630550
  16      -0.02262832
  17       0.00000000
  18      -0.46859621
  19       0.07779249
  20      -0.00000000
  21      -0.27209956
  22       0.04517173
  23       0.00000000
  24      -0.00000000
  25      -0.00000000
  26       0.05465346
  27      -0.00907312
  28       0.00000000
  29      -0.00000000
  30      -0.00000000
  31      -0.00000000
  32      -0.09340944
  33       0.01550707
  34      -0.00000000
  35      -0.00000000
  36       0.00000000
  37      -0.00000000
  38       0.00000000
  39      -0.00000000
  40       0.00000000
  41      -0.00000000
  42       0.00000000
  43      -0.00000000
  44       0.00000000
  45      -0.00000000
  46      -0.05176594
  47       0.00859376
  48      -0.00000000
  49       0.13630550
  50      -0.02262832
  51       0.00000000
  52      -0.46859621
  53       0.07779249
  54      -0.00000000
  55      -0.27209956
  56       0.04517173
  57       0.00000000
  58       0.00000000
  59       0.00000000
  60      -0.05465346
  61       0.00907312
  62      -0.00000000
  63       0.00000000
  64       0.00000000
  65       0.00000000
  66       0.09340944
  67      -0.01550707
  68      -0.00000000
Ene=     1.31454E-02
Spin= Alpha
Occup=   0.0000000000
   1      -0.00000000
   2      -0.00000000
   3       0.00000000
   4       0.00000000
   5      -0.00000000
   6       0.00000000
   7      -0.00000000
   8       0.00000000
   9       0.00000000
  10      -0.00000000
  11      -0.00000000
  12       0.00859376
  13       0.05176594
  14      -0.00000000
  15      -0.02262832
  16      -0.13630550
  17      -0.00000000
  18       0.07779249
  19       0.46859621
  20       0.00000000
  21       0.04517173
  22       0.27209956
  23      -0.00000000
  24       0.00000000
  25       0.00000000
  26      -0.00907312
  27      -0.05465346
  28      -0.00000000
  29      -0.00000000
  30       0.00000000
  31       0.00000000
  32       0.01550707
  33       0.09340944
  34      -0.00000000
  35      -0.00000000
  36       0.00000000
  37      -0.00000000
  38       0.00000000
  39      -0.00000000
  40       0.00000000
  41      -0.00000000
  42       0.00000000
  43      -0.00000000
  44       0.00000000
  45       0.00000000
  46       0.00859376
  47       0.05176594
  48      -0.00000000
  49      -0.02262832
  50      -0.13630550
  51       0.00000000
  52       0.07779249
  53       0.46859621
  54      -0.00000000
  55       0.04517173
  56       0.27209956
  57      -0.00000000
  58       0.00000000
  59       0.00000000
  60       0.00907312
  61       0.05465346
  62       0.00000000
  63       0.00000000
  64       0.00000000
  65       0.00000000
  66      -0.01550707
  67      -0.09340944
  68       0.00000000
Ene=     1.37145E-02
Spin= Alpha
Occup=   0.0000000000
   1      -0.19216418
   2      -0.34945321
   3      -0.25199442
   4       1.31372652
   5      -0.84133564
   6       0.02816310
   7      -0.10743875
   8       0.06538877
   9       0.00087243
  10       0.00046090
  11      -0.61261129
  12      -0.00000000
  13       0.00000000
  14       0.14231500
  15       0.00000000
  16      -0.00000000
  17      -0.61207650
  18      -0.00000000
  19      -0.00000000
  20       0.81695813
  21       0.00000000
  22      -0.00000000
  23      -0.19866779
  24       0.07330631
  25       0.07330631
  26      -0.00000000
  27       0.00000000
  28       0.00000000
  29       0.21219310
  30       0.23647968
  31       0.23647968
  32      -0.00000000
  33      -0.00000000
  34      -0.00000000
  35      -0.19216418
  36      -0.34945321
  37      -0.25199442
  38       1.31372652
  39      -0.84133564
  40       0.02816310
  41      -0.10743875
  42       0.06538877
  43       0.00087243
  44       0.00046090
  45       0.61261129
  46       0.00000000
  47      -0.00000000
  48      -0.14231499
  49       0.00000000
  50       0.00000000
  51       0.61207650
  52       0.00000000
  53      -0.00000000
  54      -0.81695813
  55       0.00000000
  56      -0.00000000
  57      -0.19866779
  58       0.07330631
  59       0.07330631
  60      -0.00000000
  61       0.00000000
  62      -0.00000000
  63       0.21219310
  64       0.23647968
  65       0.23647968
  66      -0.00000000
  67      -0.00000000
  68       0.00000000
Ene=     1.54483E-02
Spin= Alpha
Occup=   0.0000000000
   1      -0.00000000
   2      -0.00000000
   3      -0.00000000
   4       0.00000000
   5      -0.00000000
   6       0.00000000
   7       0.00000000
   8      -0.00000000
   9       0.00000000
  10       0.00000000
  11       0.00000000
  12      -0.01751037
  13       0.00024321
  14      -0.00000000
  15       0.06148519
  16      -0.00085401
  17       0.00000000
  18       0.02186272
  19      -0.00030367
  20      -0.00000000
  21       0.70374968
  22      -0.00977492
  23       0.00000000
  24      -0.00000000
  25      -0.00000000
  26      -0.01095089
  27       0.00015211
  28       0.00000000
  29      -0.00000000
  30      -0.00000000
  31      -0.00000000
  32       0.04368215
  33      -0.00060673
  34      -0.00000000
  35      -0.00000000
  36       0.00000000
  37      -0.00000000
  38      -0.00000000
  39       0.00000000
  40      -0.00000000
  41      -0.00000000
  42       0.00000000
  43      -0.00000000
  44       0.00000000
  45      -0.00000000
  46       0.01751037
  47      -0.00024321
  48      -0.00000000
  49      -0.06148519
  50       0.00085401
  51       0.00000000
  52      -0.02186272
  53       0.00030367
  54      -0.00000000
  55      -0.70374968
  56       0.00977492
  57       0.00000000
  58       0.00000000
  59       0.00000000
  60      -0.01095089
  61       0.00015211
  62      -0.00000000
  63       0.00000000
  64       0.00000000
  65       0.00000000
  66       0.04368215
  67      -0.00060673
  68      -0.00000000
Ene=     1.54483E-02
Spin= Alpha
Occup=   0.0000000000
   1       0.00000000
   2      -0.00000000
   3       0.00000000
   4      -0.00000000
   5       0.00000000
   6      -0.00000000
   7       0.00000000
   8      -0.00000000
   9      -0.00000000
  10      -0.00000000
  11      -0.00000000
  12       0.00024321
  13       0.01751037
  14      -0.00000000
  15      -0.00085401
  16      -0.06148519
  17       0.00000000
  18      -0.00030367
  19      -0.02186272
  20      -0.00000000
  21      -0.00977492
  22      -0.70374968
  23      -0.00000000
  24      -0.00000000
  25      -0.00000000
  26       0.00015211
  27       0.01095089
  28      -0.00000000
  29      -0.00000000
  30      -0.00000000
  31      -0.00000000
  32      -0.00060673
  33      -0.04368215
  34       0.00000000
  35      -0.00000000
  36       0.00000000
  37      -0.00000000
  38       0.00000000
  39      -0.00000000
  40       0.00000000
  41      -0.00000000
  42       0.00000000
  43       0.00000000
  44      -0.00000000
  45      -0.00000000
  46      -0.00024321
  47      -0.01751037
  48      -0.00000000
  49       0.00085401
  50       0.06148519
  51       0.00000000
  52       0.00030367
  53       0.02186272
  54      -0.00000000
  55       0.00977492
  56       0.70374968
  57       0.00000000
  58       0.00000000
  59       0.00000000
  60       0.00015211
  61       0.01095089
  62       0.00000000
  63       0.00000000
  64       0.00000000
  65       0.00000000
  66      -0.00060673
  67      -0.04368215
  68      -0.00000000
Ene=     1.86724E-02
Spin= Alpha
Occup=   0.0000000000
   1       0.13456788
   2     -14.10613025
   3       2.67186214
   4      -1.68320971
   5       0.58593722
   6      -0.05798030
   7       0.05316768
   8      -0.02803535
   9       0.00055062
  10      -0.00033013
  11       0.03925718
  12       0.00000000
  13       0.00000000
  14      -7.45736287
  15      -0.00000000
  16       0.00000000
  17       1.62753956
  18       0.00000000
  19      -0.00000000
  20      -0.68611707
  21      -0.00000000
  22       0.00000000
  23       0.02178235
  24       0.02434067
  25       0.02434067
  26       0.00000000
  27       0.00000000
  28      -0.00000000
  29      -2.00842467
  30      -0.07572494
  31      -0.07572494
  32      -0.00000000
  33       0.00000000
  34       0.00000000
  35      -0.13456788
  36      14.10613025
  37      -2.67186214
  38       1.68320971
  39      -0.58593722
  40       0.05798030
  41      -0.05316768
  42       0.02803535
  43      -0.00055062
  44       0.00033013
  45       0.03925718
  46      -0.00000000
  47      -0.00000000
  48      -7.45736287
  49       0.00000000
  50      -0.00000000
  51       1.62753956
  52      -0.00000000
  53      -0.00000000
  54      -0.68611707
  55       0.00000000
  56       0.00000000
  57      -0.02178235
  58      -0.02434067
  59      -0.02434067
  60       0.00000000
  61      -0.00000000
  62       0.00000000
  63       2.00842467
  64       0.07572494
  65       0.07572494
  66      -0.00000000
  67       0.00000000
  68       0.00000000
Ene=     1.94303E-02
Spin= Alpha
Occup=   0.0000000000
   1       0.00000000
   2      -0.00000000
   3      -0.00000000
   4       0.00000000
   5      -0.00000000
   6       0.00000000
   7      -0.00000000
   8       0.00000000
   9       0.00000000
  10      -0.00000000
  11      -0.00000000
  12       0.00683653
  13      -0.07478405
  14      -0.00000000
  15      -0.01921772
  16       0.21022063
  17      -0.00000000
  18       0.08258525
  19      -0.90339161
  20       0.00000000
  21      -0.08965348
  22       0.98071022
  23      -0.00000000
  24      -0.00000000
  25      -0.00000000
  26      -0.00638135
  27       0.06980498
  28      -0.00000000
  29      -0.00000000
  30      -0.00000000
  31      -0.00000000
  32       0.01135076
  33      -0.12416477
  34       0.00000000
  35      -0.00000000
  36       0.00000000
  37       0.00000000
  38      -0.00000000
  39       0.00000000
  40      -0.00000000
  41       0.00000000
  42      -0.00000000
  43      -0.00000000
  44      -0.00000000
  45      -0.00000000
  46       0.00683653
  47      -0.07478405
  48      -0.00000000
  49      -0.01921772
  50       0.21022063
  51      -0.00000000
  52       0.08258525
  53      -0.90339161
  54       0.00000000
  55      -0.08965348
  56       0.98071022
  57       0.00000000
  58       0.00000000
  59       0.00000000
  60       0.00638135
  61      -0.06980498
  62       0.00000000
  63       0.00000000
  64       0.00000000
  65       0.00000000
  66      -0.01135076
  67       0.12416477
  68      -0.00000000
Ene=     1.94303E-02
Spin= Alpha
Occup=   0.0000000000
   1       0.00000000
   2      -0.00000000
   3      -0.00000000
   4       0.00000000
   5      -0.00000000
   6       0.00000000
   7      -0.00000000
   8       0.00000000
   9       0.00000000
  10      -0.00000000
  11      -0.00000000
  12      -0.07478405
  13      -0.00683653
  14      -0.00000000
  15       0.21022063
  16       0.01921772
  17      -0.00000000
  18      -0.90339161
  19      -0.08258525
  20       0.00000000
  21       0.98071022
  22       0.08965348
  23      -0.00000000
  24      -0.00000000
  25      -0.00000000
  26       0.06980498
  27       0.00638135
  28       0.00000000
  29      -0.00000000
  30      -0.00000000
  31      -0.00000000
  32      -0.12416477
  33      -0.01135076
  34       0.00000000
  35       0.00000000
  36       0.00000000
  37       0.00000000
  38      -0.00000000
  39       0.00000000
  40      -0.00000000
  41       0.00000000
  42      -0.00000000
  43       0.00000000
  44      -0.00000000
  45       0.00000000
  46      -0.07478405
  47      -0.00683653
  48      -0.00000000
  49       0.21022063
  50       0.01921772
  51      -0.00000000
  52      -0.90339161
  53      -0.08258525
  54       0.00000000
  55       0.98071022
  56       0.08965348
  57      -0.00000000
  58       0.00000000
  59       0.00000000
  60      -0.06980498
  61      -0.00638135
  62      -0.00000000
  63       0.00000000
  64       0.00000000
  65       0.00000000
  66       0.12416477
  67       0.01135076
  68       0.00000000
Ene=     2.33866E-02
Spin= Alpha
Occup=   0.0000000000
   1       0.42537450
   2       0.05590541
   3      -0.14573192
   4       0.96370197
   5      -0.64403357
   6      -0.02191734
   7      -0.06803343
   8       0.04528429
   9       0.00158709
  10       0.00018405
  11      -0.50567499
  12       0.00000000
  13       0.00000000
  14       0.15174602
  15      -0.00000000
  16      -0.00000000
  17      -0.20610976
  18       0.00000000
  19       0.00000000
  20      -0.30136383
  21      -0.00000000
  22      -0.00000000
  23      -0.25280260
  24      -0.02530160
  25      -0.02530160
  26       0.00000000
  27       0.00000000
  28       0.00000000
  29      -0.03154600
  30      -0.06230192
  31      -0.06230192
  32      -0.00000000
  33      -0.00000000
  34      -0.00000000
  35       0.42537450
  36       0.05590541
  37      -0.14573192
  38       0.96370197
  39      -0.64403357
  40      -0.02191734
  41      -0.06803343
  42       0.04528429
  43       0.00158709
  44       0.00018405
  45       0.50567499
  46      -0.00000000
  47      -0.00000000
  48      -0.15174602
  49       0.00000000
  50       0.00000000
  51       0.20610976
  52      -0.00000000
  53      -0.00000000
  54       0.30136383
  55       0.00000000
  56       0.00000000
  57      -0.25280260
  58      -0.02530160
  59      -0.02530160
  60       0.00000000
  61       0.00000000
  62      -0.00000000
  63      -0.03154600
  64      -0.06230192
  65      -0.06230192
  66      -0.00000000
  67      -0.00000000
  68       0.00000000
Ene=     2.52033E-02
Spin= Alpha
Occup=   0.0000000000
   1      -0.03148947
   2       3.67152692
   3      -1.33156267
   4       1.65553328
   5      -0.81661934
   6      -0.00679780
   7      -0.07710195
   8       0.04953957
   9       0.00139464
  10       0.00025067
  11      -0.02568279
  12      -0.00000000
  13      -0.00000000
  14       1.96634417
  15       0.00000000
  16       0.00000000
  17      -0.76547270
  18      -0.00000000
  19      -0.00000000
  20      -0.30934906
  21       0.00000000
  22       0.00000000
  23      -0.00812743
  24      -0.02518627
  25      -0.02518627
  26      -0.00000000
  27      -0.00000000
  28      -0.00000000
  29       0.50316851
  30       0.02614289
  31       0.02614289
  32       0.00000000
  33      -0.00000000
  34       0.00000000
  35       0.03148947
  36      -3.67152692
  37       1.33156267
  38      -1.65553328
  39       0.81661934
  40       0.00679780
  41       0.07710195
  42      -0.04953957
  43      -0.00139464
  44      -0.00025067
  45      -0.02568279
  46       0.00000000
  47       0.00000000
  48       1.96634417
  49      -0.00000000
  50      -0.00000000
  51      -0.76547270
  52       0.00000000
  53       0.00000000
  54      -0.30934906
  55      -0.00000000
  56      -0.00000000
  57       0.00812743
  58       0.02518627
  59       0.02518627
  60      -0.00000000
  61      -0.00000000
  62       0.00000000
  63      -0.50316851
  64      -0.02614289
  65      -0.02614289
  66       0.00000000
  67      -0.00000000
  68      -0.00000000
Ene=     2.54522E-02
Spin= Alpha
Occup=   0.0000000000
   1      -0.00000000
   2       0.00000000
   3       0.00000000
   4      -0.00000000
   5       0.00000000
   6      -0.00000000
   7       0.00000000
   8      -0.00000000
   9      -0.00000000
  10       0.00000000
  11       0.00000000
  12      -1.31509106
  13      -2.13015965
  14       0.00000000
  15       0.34895780
  16       0.56523525
  17       0.00000000
  18      -0.77825403
  19      -1.26060116
  20       0.00000000
  21       0.43254169
  22       0.70062286
  23       0.00000000
  24       0.00000000
  25       0.00000000
  26      -0.32117594
  27      -0.52023472
  28       0.00000000
  29       0.00000000
  30       0.00000000
  31       0.00000000
  32       0.02985980
  33       0.04836634
  34      -0.00000000
  35      -0.00000000
  36      -0.00000000
  37      -0.00000000
  38       0.00000000
  39      -0.00000000
  40      -0.00000000
  41      -0.00000000
  42       0.00000000
  43       0.00000000
  44      -0.00000000
  45      -0.00000000
  46       1.31509106
  47       2.13015965
  48       0.00000000
  49      -0.34895780
  50      -0.56523525
  51      -0.00000000
  52       0.77825403
  53       1.26060116
  54       0.00000000
  55      -0.43254169
  56      -0.70062286
  57       0.00000000
  58      -0.00000000
  59      -0.00000000
  60      -0.32117594
  61      -0.52023472
  62      -0.00000000
  63      -0.00000000
  64      -0.00000000
  65      -0.00000000
  66       0.02985980
  67       0.04836634
  68       0.00000000
Ene=     2.54522E-02
Spin= Alpha
Occup=   0.0000000000
   1      -0.00000000
   2      -0.00000000
   3       0.00000000
   4       0.00000000
   5      -0.00000000
   6       0.00000000
   7      -0.00000000
   8       0.00000000
   9      -0.00000000
  10       0.00000000
  11       0.00000000
  12      -2.13015965
  13       1.31509106
  14      -0.00000000
  15       0.56523525
  16      -0.34895780
  17       0.00000000
  18      -1.26060116
  19       0.77825403
  20      -0.00000000
  21       0.70062286
  22      -0.43254169
  23       0.00000000
  24      -0.00000000
  25      -0.00000000
  26      -0.52023472
  27       0.32117594
  28      -0.00000000
  29      -0.00000000
  30       0.00000000
  31      -0.00000000
  32       0.04836634
  33      -0.02985980
  34       0.00000000
  35      -0.00000000
  36       0.00000000
  37       0.00000000
  38      -0.00000000
  39       0.00000000
  40       0.00000000
  41       0.00000000
  42      -0.00000000
  43      -0.00000000
  44      -0.00000000
  45      -0.00000000
  46       2.13015965
  47      -1.31509106
  48      -0.00000000
  49      -0.56523525
  50       0.34895780
  51       0.00000000
  52       1.26060116
  53      -0.77825403
  54      -0.00000000
  55      -0.70062286
  56       0.43254169
  57       0.00000000
  58       0.00000000
  59       0.00000000
  60      -0.52023472
  61       0.32117594
  62       0.00000000
  63       0.00000000
  64       0.00000000
  65       0.00000000
  66       0.04836634
  67      -0.02985980
  68      -0.00000000
Ene=     3.10589E-02
Spin= Alpha
Occup=   0.0000000000
   1      -5.46103751
   2      -2.06357957
   3       3.93043469
   4      -1.47587594
   5       0.35238212
   6       0.05112994
   7       0.02002162
   8      -0.01796892
   9      -0.00161319
  10       0.00006434
  11       3.71237537
  12      -0.00000000
  13      -0.00000000
  14      -1.64020459
  15       0.00000000
  16       0.00000000
  17       0.93710524
  18      -0.00000000
  19       0.00000000
  20      -0.60726025
  21      -0.00000000
  22      -0.00000000
  23       2.27411505
  24       0.52416895
  25       0.52416895
  26      -0.00000000
  27      -0.00000000
  28      -0.00000000
  29       0.73640653
  30       1.56146253
  31       1.56146253
  32       0.00000000
  33       0.00000000
  34       0.00000000
  35      -5.46103751
  36      -2.06357957
  37       3.93043469
  38      -1.47587594
  39       0.35238212
  40       0.05112994
  41       0.02002162
  42      -0.01796892
  43      -0.00161319
  44       0.00006434
  45      -3.71237537
  46       0.00000000
  47       0.00000000
  48       1.64020459
  49      -0.00000000
  50      -0.00000000
  51      -0.93710524
  52       0.00000000
  53      -0.00000000
  54       0.60726025
  55       0.00000000
  56       0.00000000
  57       2.27411505
  58       0.52416895
  59       0.52416895
  60      -0.00000000
  61      -0.00000000
  62       0.00000000
  63       0.73640653
  64       1.56146253
  65       1.56146253
  66       0.00000000
  67       0.00000000
  68      -0.00000000
Ene=     3.17199E-02
Spin= Alpha
Occup=   0.0000000000
   1      -1.23989872
   2      -1.46239257
   3       2.98414267
   4      -1.98033837
   5       0.69174832
   6       0.02446955
   7       0.05061477
   8      -0.03442663
   9      -0.00140137
  10      -0.00011580
  11      -0.44728985
  12      -0.00000000
  13      -0.00000000
  14      -0.04798343
  15      -0.00000000
  16       0.00000000
  17      -0.72187202
  18      -0.00000000
  19       0.00000000
  20       0.50335909
  21       0.00000000
  22      -0.00000000
  23       0.02710124
  24       0.21679057
  25       0.21679057
  26      -0.00000000
  27      -0.00000000
  28      -0.00000000
  29       0.57117367
  30       0.73044664
  31       0.73044664
  32      -0.00000000
  33      -0.00000000
  34       0.00000000
  35      -1.23989872
  36      -1.46239257
  37       2.98414267
  38      -1.98033837
  39       0.69174832
  40       0.02446955
  41       0.05061477
  42      -0.03442663
  43      -0.00140137
  44      -0.00011580
  45       0.44728985
  46      -0.00000000
  47       0.00000000
  48       0.04798343
  49       0.00000000
  50      -0.00000000
  51       0.72187202
  52      -0.00000000
  53      -0.00000000
  54      -0.50335909
  55       0.00000000
  56       0.00000000
  57       0.02710124
  58       0.21679057
  59       0.21679057
  60      -0.00000000
  61      -0.00000000
  62       0.00000000
  63       0.57117367
  64       0.73044664
  65       0.73044664
  66      -0.00000000
  67       0.00000000
  68      -0.00000000
Ene=     3.26738E-02
Spin= Alpha
Occup=   0.0000000000
   1       0.16948340
   2     -12.71242418
   3      -0.43210227
   4       0.88663851
   5      -0.38900890
   6       0.01297830
   7      -0.03045666
   8       0.01785855
   9       0.00015420
  10       0.00014112
  11      -0.12537469
  12       0.00000000