 Molden2AIM, Version 3.1.0 (02/25/2015)           Time: Thu Oct 17 19:55:04 2024
GAUSSIAN             68 MOL ORBITALS     68 PRIMITIVES        2 NUCLEI
  Be   1    (CENTRE  1)   0.00000000  0.00000000  0.00000000  CHARGE =  4.0
  Be   2    (CENTRE  2)  41.20000000  0.00000000  0.00000000  CHARGE =  4.0
CENTRE ASSIGNMENTS    1  1  1  1  1  1  1  1  1  1  1  1  1  1  1  1  1  1  1  1
CENTRE ASSIGNMENTS    1  1  1  1  1  1  1  1  1  1  1  1  1  1  2  2  2  2  2  2
CENTRE ASSIGNMENTS    2  2  2  2  2  2  2  2  2  2  2  2  2  2  2  2  2  2  2  2
CENTRE ASSIGNMENTS    2  2  2  2  2  2  2  2
TYPE ASSIGNMENTS      1  1  1  1  1  1  1  1  1  1  2  3  4  2  3  4  2  3  4  2
TYPE ASSIGNMENTS      3  4  5  6  7  8  9 10  5  6  7  8  9 10  1  1  1  1  1  1
TYPE ASSIGNMENTS      1  1  1  1  2  3  4  2  3  4  2  3  4  2  3  4  5  6  7  8
TYPE ASSIGNMENTS      9 10  5  6  7  8  9 10
EXPONENTS  0.1000000D-03 0.3000000D-03 0.9000000D-03 0.2700000D-02 0.8100000D-02
EXPONENTS  0.2430000D-01 0.7290000D-01 0.2187000D+00 0.6561000D+00 0.1968300D+01
EXPONENTS  0.1000000D-03 0.1000000D-03 0.1000000D-03 0.3000000D-03 0.3000000D-03
EXPONENTS  0.3000000D-03 0.9000000D-03 0.9000000D-03 0.9000000D-03 0.2700000D-02
EXPONENTS  0.2700000D-02 0.2700000D-02 0.1000000D-03 0.1000000D-03 0.1000000D-03
EXPONENTS  0.1000000D-03 0.1000000D-03 0.1000000D-03 0.3000000D-03 0.3000000D-03
EXPONENTS  0.3000000D-03 0.3000000D-03 0.3000000D-03 0.3000000D-03 0.1000000D-03
EXPONENTS  0.3000000D-03 0.9000000D-03 0.2700000D-02 0.8100000D-02 0.2430000D-01
EXPONENTS  0.7290000D-01 0.2187000D+00 0.6561000D+00 0.1968300D+01 0.1000000D-03
EXPONENTS  0.1000000D-03 0.1000000D-03 0.3000000D-03 0.3000000D-03 0.3000000D-03
EXPONENTS  0.9000000D-03 0.9000000D-03 0.9000000D-03 0.2700000D-02 0.2700000D-02
EXPONENTS  0.2700000D-02 0.1000000D-03 0.1000000D-03 0.1000000D-03 0.1000000D-03
EXPONENTS  0.1000000D-03 0.1000000D-03 0.3000000D-03 0.3000000D-03 0.3000000D-03
EXPONENTS  0.3000000D-03 0.3000000D-03 0.3000000D-03
MO    1     MO 0.0        OCC NO =    1.0000000  ORB. ENERGY =   -0.003399
  0.97099136D-05  0.20779016D-05 -0.96748991D-04 -0.16445579D-02 -0.57970430D-02
 -0.86807769D-02 -0.12229675D-01  0.22535101D-01  0.35197176D-02 -0.11395776D-03
 -0.56047343D-06  0.00000000D+00  0.00000000D+00  0.45443392D-06 -0.00000000D+00
  0.00000000D+00 -0.33397352D-05  0.00000000D+00  0.00000000D+00 -0.54782350D-04
 -0.00000000D+00 -0.00000000D+00 -0.22485494D-08  0.60909018D-10  0.60909018D-10
  0.00000000D+00  0.00000000D+00  0.00000000D+00  0.22916785D-08  0.81482103D-09
  0.81482103D-09 -0.00000000D+00  0.00000000D+00 -0.00000000D+00  0.97099136D-05
  0.20779016D-05 -0.96748991D-04 -0.16445579D-02 -0.57970430D-02 -0.86807769D-02
 -0.12229675D-01  0.22535101D-01  0.35197176D-02 -0.11395776D-03  0.56047343D-06
 -0.00000000D+00 -0.00000000D+00 -0.45443392D-06  0.00000000D+00 -0.00000000D+00
  0.33397352D-05 -0.00000000D+00 -0.00000000D+00  0.54782350D-04  0.00000000D+00
  0.00000000D+00 -0.22485494D-08  0.60909018D-10  0.60909018D-10  0.00000000D+00
  0.00000000D+00 -0.00000000D+00  0.22916785D-08  0.81482103D-09  0.81482103D-09
 -0.00000000D+00  0.00000000D+00  0.00000000D+00
MO    2     MO 0.0        OCC NO =    0.0000000  ORB. ENERGY =   -0.003151
 -0.23165494D-05  0.31635059D-03  0.17938320D-04  0.21612174D-02  0.54912881D-02
  0.94956600D-02  0.12349699D-01 -0.23158177D-01 -0.37832655D-02  0.17111430D-03
  0.47632245D-07  0.00000000D+00 -0.00000000D+00  0.45611439D-05 -0.00000000D+00
  0.00000000D+00 -0.27070552D-05  0.00000000D+00 -0.00000000D+00  0.82304899D-04
 -0.00000000D+00  0.00000000D+00  0.62069065D-09  0.53581864D-09  0.53581864D-09
  0.00000000D+00 -0.00000000D+00 -0.00000000D+00  0.27482156D-07  0.88418527D-08
  0.88418527D-08 -0.00000000D+00  0.00000000D+00  0.00000000D+00  0.23165494D-05
 -0.31635059D-03 -0.17938320D-04 -0.21612174D-02 -0.54912881D-02 -0.94956600D-02
 -0.12349699D-01  0.23158177D-01  0.37832655D-02 -0.17111430D-03  0.47632245D-07
 -0.00000000D+00  0.00000000D+00  0.45611439D-05  0.00000000D+00 -0.00000000D+00
 -0.27070552D-05 -0.00000000D+00  0.00000000D+00  0.82304899D-04  0.00000000D+00
 -0.00000000D+00 -0.62069065D-09 -0.53581864D-09 -0.53581864D-09  0.00000000D+00
 -0.00000000D+00  0.00000000D+00 -0.27482156D-07 -0.88418527D-08 -0.88418527D-08
 -0.00000000D+00  0.00000000D+00 -0.00000000D+00
MO    3     MO 0.0        OCC NO =    0.0000000  ORB. ENERGY =    0.004368
 -0.45157738D-03 -0.17821194D-03  0.35990501D-02 -0.48912699D-02 -0.14808416D-02
 -0.51971015D-02 -0.40312801D-02  0.86338426D-02  0.18500262D-02 -0.20195466D-03
  0.15447245D-04 -0.00000000D+00  0.00000000D+00 -0.19339714D-04  0.00000000D+00
 -0.00000000D+00  0.10166944D-03 -0.00000000D+00 -0.00000000D+00 -0.32274110D-04
  0.00000000D+00  0.00000000D+00  0.68815803D-07  0.44873830D-08  0.44873830D-08
 -0.00000000D+00  0.00000000D+00  0.00000000D+00 -0.33107698D-07  0.10312483D-06
  0.10312483D-06  0.00000000D+00 -0.00000000D+00 -0.00000000D+00 -0.45157738D-03
 -0.17821194D-03  0.35990501D-02 -0.48912699D-02 -0.14808416D-02 -0.51971015D-02
 -0.40312801D-02  0.86338426D-02  0.18500262D-02 -0.20195466D-03 -0.15447245D-04
  0.00000000D+00 -0.00000000D+00  0.19339714D-04 -0.00000000D+00  0.00000000D+00
 -0.10166944D-03  0.00000000D+00  0.00000000D+00  0.32274110D-04 -0.00000000D+00
 -0.00000000D+00  0.68815803D-07  0.44873830D-08  0.44873830D-08 -0.00000000D+00
  0.00000000D+00 -0.00000000D+00 -0.33107698D-07  0.10312483D-06  0.10312483D-06
  0.00000000D+00 -0.00000000D+00  0.00000000D+00
MO    4     MO 0.0        OCC NO =    0.0000000  ORB. ENERGY =    0.007527
 -0.00000000D+00  0.00000000D+00 -0.00000000D+00  0.00000000D+00 -0.00000000D+00
  0.00000000D+00 -0.00000000D+00 -0.00000000D+00  0.00000000D+00 -0.00000000D+00
  0.00000000D+00  0.36964441D-06  0.23180646D-06  0.00000000D+00 -0.42463029D-05
 -0.26628846D-05 -0.00000000D+00  0.56174644D-04  0.35227487D-04 -0.00000000D+00
  0.31280767D-03  0.19616374D-03  0.00000000D+00  0.00000000D+00  0.00000000D+00
 -0.46587675D-08 -0.29215422D-08 -0.00000000D+00  0.00000000D+00  0.00000000D+00
  0.00000000D+00  0.75754449D-07  0.47506112D-07  0.00000000D+00 -0.00000000D+00
 -0.00000000D+00  0.00000000D+00 -0.00000000D+00  0.00000000D+00 -0.00000000D+00
  0.00000000D+00  0.00000000D+00 -0.00000000D+00 -0.00000000D+00 -0.00000000D+00
  0.36964441D-06  0.23180646D-06  0.00000000D+00 -0.42463029D-05 -0.26628846D-05
 -0.00000000D+00  0.56174644D-04  0.35227487D-04  0.00000000D+00  0.31280767D-03
  0.19616374D-03  0.00000000D+00 -0.00000000D+00 -0.00000000D+00  0.46587675D-08
  0.29215422D-08  0.00000000D+00 -0.00000000D+00 -0.00000000D+00 -0.00000000D+00
 -0.75754449D-07 -0.47506112D-07 -0.00000000D+00
MO    5     MO 0.0        OCC NO =    0.0000000  ORB. ENERGY =    0.007527
 -0.00000000D+00  0.00000000D+00 -0.00000000D+00 -0.00000000D+00  0.00000000D+00
  0.00000000D+00  0.00000000D+00 -0.00000000D+00  0.00000000D+00 -0.00000000D+00
 -0.00000000D+00  0.23180646D-06 -0.36964441D-06  0.00000000D+00 -0.26628846D-05
  0.42463029D-05 -0.00000000D+00  0.35227487D-04 -0.56174644D-04 -0.00000000D+00
  0.19616374D-03 -0.31280767D-03 -0.00000000D+00  0.00000000D+00  0.00000000D+00
 -0.29215422D-08  0.46587675D-08  0.00000000D+00  0.00000000D+00  0.00000000D+00
  0.00000000D+00  0.47506112D-07 -0.75754449D-07 -0.00000000D+00  0.00000000D+00
 -0.00000000D+00  0.00000000D+00 -0.00000000D+00  0.00000000D+00 -0.00000000D+00
  0.00000000D+00  0.00000000D+00  0.00000000D+00 -0.00000000D+00  0.00000000D+00
  0.23180646D-06 -0.36964441D-06  0.00000000D+00 -0.26628846D-05  0.42463029D-05
 -0.00000000D+00  0.35227487D-04 -0.56174644D-04  0.00000000D+00  0.19616374D-03
 -0.31280767D-03 -0.00000000D+00 -0.00000000D+00 -0.00000000D+00  0.29215422D-08
 -0.46587675D-08 -0.00000000D+00 -0.00000000D+00 -0.00000000D+00 -0.00000000D+00
 -0.47506112D-07  0.75754449D-07  0.00000000D+00
MO    6     MO 0.0        OCC NO =    0.0000000  ORB. ENERGY =    0.009796
  0.00000000D+00 -0.00000000D+00  0.00000000D+00  0.00000000D+00 -0.00000000D+00
 -0.00000000D+00 -0.00000000D+00  0.00000000D+00  0.00000000D+00  0.00000000D+00
  0.00000000D+00 -0.69934937D-06  0.68819924D-06 -0.00000000D+00  0.35932372D-05
 -0.35359475D-05  0.00000000D+00  0.11359887D-05 -0.11178772D-05  0.00000000D+00
  0.46357411D-03 -0.45618300D-03  0.00000000D+00 -0.00000000D+00 -0.00000000D+00
 -0.35070497D-08  0.34511365D-08  0.00000000D+00 -0.00000000D+00 -0.00000000D+00
 -0.00000000D+00  0.53506701D-07 -0.52653601D-07 -0.00000000D+00 -0.00000000D+00
  0.00000000D+00 -0.00000000D+00  0.00000000D+00  0.00000000D+00  0.00000000D+00
  0.00000000D+00 -0.00000000D+00 -0.00000000D+00 -0.00000000D+00 -0.00000000D+00
  0.69934937D-06 -0.68819924D-06 -0.00000000D+00 -0.35932372D-05  0.35359475D-05
  0.00000000D+00 -0.11359887D-05  0.11178772D-05  0.00000000D+00 -0.46357411D-03
  0.45618300D-03  0.00000000D+00  0.00000000D+00  0.00000000D+00 -0.35070497D-08
  0.34511365D-08 -0.00000000D+00  0.00000000D+00  0.00000000D+00  0.00000000D+00
  0.53506701D-07 -0.52653601D-07  0.00000000D+00
MO    7     MO 0.0        OCC NO =    0.0000000  ORB. ENERGY =    0.009796
 -0.00000000D+00  0.00000000D+00  0.00000000D+00 -0.00000000D+00  0.00000000D+00
 -0.00000000D+00  0.00000000D+00 -0.00000000D+00  0.00000000D+00  0.00000000D+00
  0.00000000D+00 -0.68819924D-06 -0.69934937D-06  0.00000000D+00  0.35359475D-05
  0.35932372D-05  0.00000000D+00  0.11178772D-05  0.11359887D-05 -0.00000000D+00
  0.45618300D-03  0.46357411D-03  0.00000000D+00 -0.00000000D+00 -0.00000000D+00
 -0.34511365D-08 -0.35070497D-08 -0.00000000D+00  0.00000000D+00 -0.00000000D+00
 -0.00000000D+00  0.52653601D-07  0.53506701D-07  0.00000000D+00 -0.00000000D+00
 -0.00000000D+00  0.00000000D+00 -0.00000000D+00  0.00000000D+00 -0.00000000D+00
  0.00000000D+00 -0.00000000D+00  0.00000000D+00 -0.00000000D+00 -0.00000000D+00
  0.68819924D-06  0.69934937D-06  0.00000000D+00 -0.35359475D-05 -0.35932372D-05
 -0.00000000D+00 -0.11178772D-05 -0.11359887D-05  0.00000000D+00 -0.45618300D-03
 -0.46357411D-03  0.00000000D+00 -0.00000000D+00 -0.00000000D+00 -0.34511365D-08
 -0.35070497D-08  0.00000000D+00 -0.00000000D+00 -0.00000000D+00 -0.00000000D+00
  0.52653601D-07  0.53506701D-07 -0.00000000D+00
MO    8     MO 0.0        OCC NO =    0.0000000  ORB. ENERGY =    0.009952
 -0.18724171D-03  0.37593944D-01 -0.76707770D-02 -0.15438967D-02  0.10637971D-01
  0.16741120D-02  0.80949590D-02 -0.12553853D-01 -0.10805597D-02 -0.23497423D-03
 -0.15661160D-05 -0.00000000D+00 -0.00000000D+00  0.50622990D-03  0.00000000D+00
  0.00000000D+00 -0.18661264D-03 -0.00000000D+00 -0.00000000D+00 -0.34440398D-03
  0.00000000D+00 -0.00000000D+00 -0.13234692D-07 -0.85972390D-08 -0.85972390D-08
 -0.00000000D+00 -0.00000000D+00  0.00000000D+00  0.20369319D-05 -0.91671249D-07
 -0.91671249D-07  0.00000000D+00  0.00000000D+00 -0.00000000D+00  0.18724171D-03
 -0.37593944D-01  0.76707770D-02  0.15438967D-02 -0.10637971D-01 -0.16741120D-02
 -0.80949590D-02  0.12553853D-01  0.10805597D-02  0.23497423D-03 -0.15661160D-05
  0.00000000D+00  0.00000000D+00  0.50622990D-03 -0.00000000D+00 -0.00000000D+00
 -0.18661264D-03  0.00000000D+00  0.00000000D+00 -0.34440398D-03 -0.00000000D+00
  0.00000000D+00  0.13234692D-07  0.85972390D-08  0.85972390D-08 -0.00000000D+00
 -0.00000000D+00 -0.00000000D+00 -0.20369319D-05  0.91671249D-07  0.91671249D-07
  0.00000000D+00  0.00000000D+00  0.00000000D+00
MO    9     MO 0.0        OCC NO =    0.0000000  ORB. ENERGY =    0.010290
 -0.26469738D-03  0.44053933D-03  0.21183696D-02 -0.11011553D-01  0.13043431D-01
 -0.23294505D-02  0.76868575D-02 -0.98625221D-02  0.10281618D-03 -0.49348141D-03
  0.19398950D-04 -0.00000000D+00 -0.00000000D+00 -0.20807333D-04  0.00000000D+00
  0.00000000D+00  0.13766072D-03 -0.00000000D+00 -0.00000000D+00 -0.66779159D-03
 -0.00000000D+00 -0.00000000D+00  0.76672158D-07 -0.45640221D-08 -0.45640221D-08
 -0.00000000D+00 -0.00000000D+00 -0.00000000D+00 -0.24252953D-06 -0.10704632D-06
 -0.10704632D-06  0.00000000D+00  0.00000000D+00  0.00000000D+00 -0.26469738D-03
  0.44053933D-03  0.21183696D-02 -0.11011553D-01  0.13043431D-01 -0.23294505D-02
  0.76868575D-02 -0.98625221D-02  0.10281618D-03 -0.49348141D-03 -0.19398950D-04
  0.00000000D+00  0.00000000D+00  0.20807333D-04 -0.00000000D+00 -0.00000000D+00
 -0.13766072D-03  0.00000000D+00  0.00000000D+00  0.66779159D-03  0.00000000D+00
  0.00000000D+00  0.76672158D-07 -0.45640221D-08 -0.45640221D-08 -0.00000000D+00
 -0.00000000D+00  0.00000000D+00 -0.24252953D-06 -0.10704632D-06 -0.10704632D-06
  0.00000000D+00  0.00000000D+00  0.00000000D+00
MO   10     MO 0.0        OCC NO =    0.0000000  ORB. ENERGY =    0.014689
 -0.00000000D+00  0.00000000D+00 -0.00000000D+00  0.00000000D+00 -0.00000000D+00
  0.00000000D+00 -0.00000000D+00  0.00000000D+00 -0.00000000D+00  0.00000000D+00
  0.00000000D+00  0.10468517D-05 -0.20986867D-06  0.00000000D+00 -0.13014257D-04
  0.26090470D-05 -0.00000000D+00  0.21437356D-03 -0.42976764D-04  0.00000000D+00
 -0.81178109D-03  0.16274266D-03  0.00000000D+00  0.00000000D+00  0.00000000D+00
 -0.88863140D-08  0.17814928D-08 -0.00000000D+00  0.00000000D+00  0.00000000D+00
  0.00000000D+00  0.17951916D-06 -0.35989299D-07 -0.00000000D+00  0.00000000D+00
 -0.00000000D+00  0.00000000D+00 -0.00000000D+00  0.00000000D+00 -0.00000000D+00
  0.00000000D+00 -0.00000000D+00 -0.00000000D+00 -0.00000000D+00 -0.00000000D+00
  0.10468517D-05 -0.20986867D-06  0.00000000D+00 -0.13014257D-04  0.26090470D-05
 -0.00000000D+00  0.21437356D-03 -0.42976764D-04  0.00000000D+00 -0.81178109D-03
  0.16274266D-03  0.00000000D+00 -0.00000000D+00 -0.00000000D+00  0.88863140D-08
 -0.17814928D-08  0.00000000D+00 -0.00000000D+00 -0.00000000D+00 -0.00000000D+00
 -0.17951916D-06  0.35989299D-07  0.00000000D+00
MO   11     MO 0.0        OCC NO =    0.0000000  ORB. ENERGY =    0.014689
  0.00000000D+00 -0.00000000D+00  0.00000000D+00 -0.00000000D+00  0.00000000D+00
 -0.00000000D+00 -0.00000000D+00  0.00000000D+00 -0.00000000D+00  0.00000000D+00
 -0.00000000D+00 -0.20986867D-06 -0.10468517D-05 -0.00000000D+00  0.26090470D-05
  0.13014257D-04  0.00000000D+00 -0.42976764D-04 -0.21437356D-03 -0.00000000D+00
  0.16274266D-03  0.81178109D-03 -0.00000000D+00 -0.00000000D+00 -0.00000000D+00
  0.17814928D-08  0.88863140D-08  0.00000000D+00 -0.00000000D+00  0.00000000D+00
  0.00000000D+00 -0.35989299D-07 -0.17951916D-06 -0.00000000D+00  0.00000000D+00
  0.00000000D+00 -0.00000000D+00  0.00000000D+00 -0.00000000D+00  0.00000000D+00
 -0.00000000D+00  0.00000000D+00  0.00000000D+00 -0.00000000D+00  0.00000000D+00
 -0.20986867D-06 -0.10468517D-05 -0.00000000D+00  0.26090470D-05  0.13014257D-04
  0.00000000D+00 -0.42976764D-04 -0.21437356D-03 -0.00000000D+00  0.16274266D-03
  0.81178109D-03 -0.00000000D+00  0.00000000D+00  0.00000000D+00 -0.17814928D-08
 -0.88863140D-08 -0.00000000D+00  0.00000000D+00  0.00000000D+00  0.00000000D+00
  0.35989299D-07  0.17951916D-06  0.00000000D+00
MO   12     MO 0.0        OCC NO =    0.0000000  ORB. ENERGY =    0.015668
 -0.20753467D-03  0.36873148D-01 -0.62265669D-02  0.69770386D-02 -0.56473032D-02
  0.26733376D-02 -0.23374968D-02  0.19793951D-02 -0.57847026D-03  0.27977803D-03
  0.42599846D-06 -0.00000000D+00 -0.00000000D+00  0.50540877D-03  0.00000000D+00
  0.00000000D+00 -0.23858786D-03 -0.00000000D+00 -0.00000000D+00  0.83664061D-03
  0.00000000D+00  0.00000000D+00  0.11553145D-07  0.11237620D-07  0.11237620D-07
 -0.00000000D+00 -0.00000000D+00  0.00000000D+00  0.23161081D-05  0.21607023D-06
  0.21607023D-06  0.00000000D+00  0.00000000D+00 -0.00000000D+00  0.20753467D-03
 -0.36873148D-01  0.62265669D-02 -0.69770386D-02  0.56473032D-02 -0.26733376D-02
  0.23374968D-02 -0.19793951D-02  0.57847026D-03 -0.27977803D-03  0.42599846D-06
  0.00000000D+00  0.00000000D+00  0.50540877D-03 -0.00000000D+00 -0.00000000D+00
 -0.23858786D-03  0.00000000D+00  0.00000000D+00  0.83664061D-03 -0.00000000D+00
 -0.00000000D+00 -0.11553145D-07 -0.11237620D-07 -0.11237620D-07 -0.00000000D+00
 -0.00000000D+00 -0.00000000D+00 -0.23161081D-05 -0.21607023D-06 -0.21607023D-06
  0.00000000D+00  0.00000000D+00  0.00000000D+00
MO   13     MO 0.0        OCC NO =    0.0000000  ORB. ENERGY =    0.015930
 -0.10073358D-03  0.32285399D-04  0.92127510D-03 -0.11084735D-01  0.15229755D-01
  0.82423632D-03  0.84088740D-02 -0.12560276D-01 -0.90303043D-03 -0.29701027D-03
  0.64342997D-05 -0.00000000D+00 -0.00000000D+00 -0.26517527D-05 -0.00000000D+00
 -0.00000000D+00  0.48252638D-04 -0.00000000D+00 -0.00000000D+00  0.24069786D-03
  0.00000000D+00  0.00000000D+00  0.25256014D-07 -0.88808562D-09 -0.88808562D-09
 -0.00000000D+00 -0.00000000D+00  0.00000000D+00 -0.77679935D-08 -0.28461670D-07
 -0.28461670D-07 -0.00000000D+00 -0.00000000D+00 -0.00000000D+00 -0.10073358D-03
  0.32285399D-04  0.92127510D-03 -0.11084735D-01  0.15229755D-01  0.82423632D-03
  0.84088740D-02 -0.12560276D-01 -0.90303043D-03 -0.29701027D-03 -0.64342997D-05
  0.00000000D+00  0.00000000D+00  0.26517527D-05  0.00000000D+00  0.00000000D+00
 -0.48252638D-04 -0.00000000D+00 -0.00000000D+00 -0.24069786D-03  0.00000000D+00
  0.00000000D+00  0.25256014D-07 -0.88808562D-09 -0.88808562D-09 -0.00000000D+00
 -0.00000000D+00 -0.00000000D+00 -0.77679935D-08 -0.28461670D-07 -0.28461670D-07
 -0.00000000D+00 -0.00000000D+00  0.00000000D+00
MO   14     MO 0.0        OCC NO =    0.0000000  ORB. ENERGY =    0.018978
  0.25344063D-03 -0.48236170D-01  0.14003418D-01 -0.21323488D-01  0.20808771D-01
 -0.48782506D-03  0.98859034D-02 -0.13991757D-01 -0.65435753D-03 -0.44684187D-03
  0.96753673D-06  0.00000000D+00  0.00000000D+00 -0.65529729D-03 -0.00000000D+00
 -0.00000000D+00  0.38968896D-03  0.00000000D+00  0.00000000D+00  0.50227048D-04
 -0.00000000D+00 -0.00000000D+00  0.17561436D-08  0.19440932D-08  0.19440932D-08
  0.00000000D+00  0.00000000D+00 -0.00000000D+00 -0.27727024D-05 -0.75807215D-07
 -0.75807215D-07 -0.00000000D+00 -0.00000000D+00  0.00000000D+00 -0.25344063D-03
  0.48236170D-01 -0.14003418D-01  0.21323488D-01 -0.20808771D-01  0.48782506D-03
 -0.98859034D-02  0.13991757D-01  0.65435753D-03  0.44684187D-03  0.96753673D-06
 -0.00000000D+00 -0.00000000D+00 -0.65529729D-03  0.00000000D+00  0.00000000D+00
  0.38968896D-03 -0.00000000D+00 -0.00000000D+00  0.50227048D-04  0.00000000D+00
  0.00000000D+00 -0.17561436D-08 -0.19440932D-08 -0.19440932D-08  0.00000000D+00
  0.00000000D+00  0.00000000D+00  0.27727024D-05  0.75807215D-07  0.75807215D-07
 -0.00000000D+00 -0.00000000D+00 -0.00000000D+00
MO   15     MO 0.0        OCC NO =    0.0000000  ORB. ENERGY =    0.021233
 -0.00000000D+00  0.00000000D+00 -0.00000000D+00 -0.00000000D+00  0.00000000D+00
  0.00000000D+00  0.00000000D+00 -0.00000000D+00 -0.00000000D+00  0.00000000D+00
  0.00000000D+00  0.87728385D-05 -0.76058039D-04  0.00000000D+00 -0.78832809D-05
  0.68345823D-04 -0.00000000D+00  0.42106751D-04 -0.36505367D-03  0.00000000D+00
 -0.80961702D-04  0.70191519D-03  0.00000000D+00  0.00000000D+00  0.00000000D+00
  0.35364055D-07 -0.30659640D-06  0.00000000D+00  0.00000000D+00  0.00000000D+00
  0.00000000D+00 -0.50321152D-07  0.43627028D-06 -0.00000000D+00  0.00000000D+00
 -0.00000000D+00  0.00000000D+00  0.00000000D+00 -0.00000000D+00 -0.00000000D+00
 -0.00000000D+00  0.00000000D+00  0.00000000D+00 -0.00000000D+00 -0.00000000D+00
 -0.87728385D-05  0.76058039D-04  0.00000000D+00  0.78832809D-05 -0.68345823D-04
 -0.00000000D+00 -0.42106751D-04  0.36505367D-03  0.00000000D+00  0.80961702D-04
 -0.70191519D-03  0.00000000D+00 -0.00000000D+00 -0.00000000D+00  0.35364055D-07
 -0.30659640D-06 -0.00000000D+00 -0.00000000D+00 -0.00000000D+00 -0.00000000D+00
 -0.50321152D-07  0.43627028D-06  0.00000000D+00
MO   16     MO 0.0        OCC NO =    0.0000000  ORB. ENERGY =    0.021233
 -0.00000000D+00 -0.00000000D+00 -0.00000000D+00  0.00000000D+00 -0.00000000D+00
 -0.00000000D+00 -0.00000000D+00  0.00000000D+00  0.00000000D+00  0.00000000D+00
 -0.00000000D+00  0.76058039D-04  0.87728385D-05 -0.00000000D+00 -0.68345823D-04
 -0.78832809D-05  0.00000000D+00  0.36505367D-03  0.42106751D-04 -0.00000000D+00
 -0.70191519D-03 -0.80961702D-04 -0.00000000D+00 -0.00000000D+00 -0.00000000D+00
  0.30659640D-06  0.35364055D-07  0.00000000D+00 -0.00000000D+00 -0.00000000D+00
 -0.00000000D+00 -0.43627028D-06 -0.50321152D-07 -0.00000000D+00  0.00000000D+00
  0.00000000D+00 -0.00000000D+00 -0.00000000D+00  0.00000000D+00  0.00000000D+00
  0.00000000D+00 -0.00000000D+00 -0.00000000D+00 -0.00000000D+00 -0.00000000D+00
 -0.76058039D-04 -0.87728385D-05 -0.00000000D+00  0.68345823D-04  0.78832809D-05
  0.00000000D+00 -0.36505367D-03 -0.42106751D-04 -0.00000000D+00  0.70191519D-03
  0.80961702D-04  0.00000000D+00  0.00000000D+00  0.00000000D+00  0.30659640D-06
  0.35364055D-07 -0.00000000D+00  0.00000000D+00  0.00000000D+00  0.00000000D+00
 -0.43627028D-06 -0.50321152D-07  0.00000000D+00
MO   17     MO 0.0        OCC NO =    0.0000000  ORB. ENERGY =    0.026575
 -0.70134973D-03  0.20900770D-02 -0.67786468D-02  0.10723776D-01 -0.84460159D-02
 -0.20101355D-02 -0.31142926D-02  0.54857767D-02  0.79827628D-03  0.36477854D-05
  0.49175806D-04  0.00000000D+00 -0.00000000D+00 -0.50902127D-04 -0.00000000D+00
  0.00000000D+00  0.25466976D-03  0.00000000D+00 -0.00000000D+00 -0.55130171D-03
  0.00000000D+00 -0.00000000D+00  0.19778124D-06 -0.10398976D-07 -0.10398976D-07
  0.00000000D+00 -0.00000000D+00  0.00000000D+00 -0.72348558D-06 -0.34442732D-06
 -0.34442732D-06 -0.00000000D+00  0.00000000D+00 -0.00000000D+00 -0.70134973D-03
  0.20900770D-02 -0.67786468D-02  0.10723776D-01 -0.84460159D-02 -0.20101355D-02
 -0.31142926D-02  0.54857767D-02  0.79827628D-03  0.36477854D-05 -0.49175806D-04
 -0.00000000D+00  0.00000000D+00  0.50902126D-04  0.00000000D+00 -0.00000000D+00
 -0.25466976D-03 -0.00000000D+00 -0.00000000D+00  0.55130171D-03  0.00000000D+00
  0.00000000D+00  0.19778124D-06 -0.10398976D-07 -0.10398976D-07  0.00000000D+00
 -0.00000000D+00 -0.00000000D+00 -0.72348558D-06 -0.34442732D-06 -0.34442732D-06
 -0.00000000D+00  0.00000000D+00  0.00000000D+00
MO   18     MO 0.0        OCC NO =    0.0000000  ORB. ENERGY =    0.028315
 -0.48063288D-03  0.77602993D-01 -0.30830682D-02 -0.39681014D-02  0.36717338D-02
  0.75934250D-03  0.14149318D-02 -0.23874149D-02 -0.29897173D-03 -0.17634910D-04
  0.44759489D-05 -0.00000000D+00 -0.00000000D+00  0.10903714D-02  0.00000000D+00
  0.00000000D+00 -0.64583527D-03 -0.00000000D+00 -0.00000000D+00  0.64948226D-03
 -0.00000000D+00  0.00000000D+00  0.70017234D-07  0.59893841D-07  0.59893841D-07
 -0.00000000D+00 -0.00000000D+00  0.00000000D+00  0.55748857D-05  0.10861112D-05
  0.10861112D-05  0.00000000D+00  0.00000000D+00 -0.00000000D+00  0.48063288D-03
 -0.77602993D-01  0.30830682D-02  0.39681014D-02 -0.36717338D-02 -0.75934250D-03
 -0.14149318D-02  0.23874149D-02  0.29897173D-03  0.17634910D-04  0.44759489D-05
  0.00000000D+00  0.00000000D+00  0.10903714D-02 -0.00000000D+00 -0.00000000D+00
 -0.64583527D-03  0.00000000D+00  0.00000000D+00  0.64948226D-03  0.00000000D+00
  0.00000000D+00 -0.70017234D-07 -0.59893841D-07 -0.59893841D-07 -0.00000000D+00
 -0.00000000D+00 -0.00000000D+00 -0.55748857D-05 -0.10861112D-05 -0.10861112D-05
  0.00000000D+00  0.00000000D+00  0.00000000D+00
MO   19     MO 0.0        OCC NO =    0.0000000  ORB. ENERGY =    0.030111
  0.38771939D-02  0.38624646D-02 -0.17703955D-01  0.17674237D-01 -0.88090579D-02
 -0.45906866D-02 -0.22378369D-02  0.55472761D-02  0.14476720D-02 -0.20026105D-03
 -0.61194132D-04  0.00000000D+00  0.00000000D+00  0.11093213D-03 -0.00000000D+00
 -0.00000000D+00 -0.10816499D-03  0.00000000D+00  0.00000000D+00  0.28023192D-03
 -0.00000000D+00  0.00000000D+00 -0.35204991D-06 -0.89863432D-07 -0.89863432D-07
  0.00000000D+00  0.00000000D+00 -0.00000000D+00 -0.78895284D-06 -0.19040192D-05
 -0.19040192D-05 -0.00000000D+00 -0.00000000D+00  0.00000000D+00  0.38771939D-02
  0.38624646D-02 -0.17703955D-01  0.17674237D-01 -0.88090579D-02 -0.45906866D-02
 -0.22378369D-02  0.55472761D-02  0.14476720D-02 -0.20026105D-03  0.61194132D-04
 -0.00000000D+00 -0.00000000D+00 -0.11093213D-03  0.00000000D+00  0.00000000D+00
  0.10816499D-03 -0.00000000D+00 -0.00000000D+00 -0.28023192D-03  0.00000000D+00
  0.00000000D+00 -0.35204991D-06 -0.89863432D-07 -0.89863432D-07  0.00000000D+00
  0.00000000D+00  0.00000000D+00 -0.78895286D-06 -0.19040192D-05 -0.19040192D-05
 -0.00000000D+00 -0.00000000D+00  0.00000000D+00
MO   20     MO 0.0        OCC NO =    0.0000000  ORB. ENERGY =    0.038754
  0.49696617D-04  0.80807610D-01 -0.17525616D-01  0.11229484D-01 -0.29051229D-05
 -0.12500799D-01  0.14959755D-02  0.38314130D-02  0.29828227D-02 -0.76513483D-03
 -0.40193457D-04 -0.00000000D+00 -0.00000000D+00  0.10607327D-02  0.00000000D+00
  0.00000000D+00  0.13160923D-03 -0.00000000D+00 -0.00000000D+00 -0.17150750D-03
  0.00000000D+00  0.00000000D+00 -0.59499635D-06 -0.52422600D-06 -0.52422600D-06
 -0.00000000D+00 -0.00000000D+00  0.00000000D+00  0.46879636D-06 -0.41118981D-05
 -0.41118981D-05  0.00000000D+00  0.00000000D+00 -0.00000000D+00 -0.49696617D-04
 -0.80807610D-01  0.17525616D-01 -0.11229484D-01  0.29051229D-05  0.12500799D-01
 -0.14959755D-02 -0.38314130D-02 -0.29828227D-02  0.76513483D-03 -0.40193457D-04
  0.00000000D+00  0.00000000D+00  0.10607327D-02 -0.00000000D+00 -0.00000000D+00
  0.13160923D-03  0.00000000D+00  0.00000000D+00 -0.17150750D-03 -0.00000000D+00
 -0.00000000D+00  0.59499635D-06  0.52422600D-06  0.52422600D-06 -0.00000000D+00
 -0.00000000D+00 -0.00000000D+00 -0.46879636D-06  0.41118981D-05  0.41118981D-05
  0.00000000D+00  0.00000000D+00  0.00000000D+00
MO   21     MO 0.0        OCC NO =    0.0000000  ORB. ENERGY =    0.040538
 -0.00000000D+00  0.00000000D+00 -0.00000000D+00  0.00000000D+00  0.00000000D+00
 -0.00000000D+00  0.00000000D+00  0.00000000D+00  0.00000000D+00 -0.00000000D+00
  0.00000000D+00  0.00000000D+00  0.00000000D+00  0.00000000D+00 -0.00000000D+00
 -0.00000000D+00 -0.00000000D+00  0.00000000D+00  0.00000000D+00  0.00000000D+00
 -0.00000000D+00 -0.00000000D+00  0.00000000D+00  0.54687167D-08 -0.54687167D-08
  0.00000000D+00  0.00000000D+00 -0.97600253D-07  0.00000000D+00 -0.72740425D-07
  0.72740425D-07 -0.00000000D+00 -0.00000000D+00  0.12981992D-05  0.00000000D+00
 -0.00000000D+00  0.00000000D+00 -0.00000000D+00 -0.00000000D+00  0.00000000D+00
 -0.00000000D+00 -0.00000000D+00 -0.00000000D+00  0.00000000D+00  0.00000000D+00
 -0.00000000D+00 -0.00000000D+00  0.00000000D+00  0.00000000D+00  0.00000000D+00
 -0.00000000D+00 -0.00000000D+00  0.00000000D+00  0.00000000D+00  0.00000000D+00
 -0.00000000D+00 -0.00000000D+00  0.54687167D-08 -0.54687167D-08  0.00000000D+00
  0.00000000D+00 -0.97600253D-07 -0.00000000D+00 -0.72740425D-07  0.72740425D-07
 -0.00000000D+00 -0.00000000D+00  0.12981992D-05
MO   22     MO 0.0        OCC NO =    0.0000000  ORB. ENERGY =    0.040538
 -0.00000000D+00  0.00000000D+00 -0.00000000D+00  0.00000000D+00  0.00000000D+00
 -0.00000000D+00  0.00000000D+00  0.00000000D+00  0.00000000D+00 -0.00000000D+00
  0.00000000D+00 -0.00000000D+00  0.00000000D+00  0.00000000D+00  0.00000000D+00
 -0.00000000D+00 -0.00000000D+00  0.00000000D+00  0.00000000D+00  0.00000000D+00
 -0.00000000D+00 -0.00000000D+00  0.00000000D+00 -0.48800127D-07  0.48800127D-07
 -0.00000000D+00  0.00000000D+00 -0.10937435D-07  0.00000000D+00  0.64909963D-06
 -0.64909963D-06  0.00000000D+00 -0.00000000D+00  0.14548086D-06  0.00000000D+00
 -0.00000000D+00 -0.00000000D+00  0.00000000D+00  0.00000000D+00 -0.00000000D+00
  0.00000000D+00  0.00000000D+00  0.00000000D+00  0.00000000D+00 -0.00000000D+00
  0.00000000D+00 -0.00000000D+00  0.00000000D+00 -0.00000000D+00  0.00000000D+00
 -0.00000000D+00  0.00000000D+00 -0.00000000D+00  0.00000000D+00 -0.00000000D+00
  0.00000000D+00 -0.00000000D+00 -0.48800127D-07  0.48800127D-07 -0.00000000D+00
  0.00000000D+00 -0.10937435D-07 -0.00000000D+00  0.64909963D-06 -0.64909963D-06
  0.00000000D+00 -0.00000000D+00  0.14548086D-06
MO   23     MO 0.0        OCC NO =    0.0000000  ORB. ENERGY =    0.042183
 -0.12814622D-02  0.18569892D+00 -0.64451478D-02  0.42189075D-02  0.38272594D-02
 -0.12485076D-01  0.24835999D-02  0.23034761D-02  0.28027320D-02 -0.77825738D-03
  0.21323803D-04 -0.00000000D+00 -0.00000000D+00  0.23798146D-02  0.00000000D+00
  0.00000000D+00  0.20959710D-04 -0.00000000D+00 -0.00000000D+00 -0.92420336D-04
  0.00000000D+00  0.00000000D+00  0.45732612D-06  0.51593538D-06  0.51593538D-06
 -0.00000000D+00 -0.00000000D+00  0.00000000D+00  0.11240091D-04  0.67084173D-06
  0.67084173D-06  0.00000000D+00  0.00000000D+00 -0.00000000D+00  0.12814622D-02
 -0.18569892D+00  0.64451478D-02 -0.42189075D-02 -0.38272594D-02  0.12485076D-01
 -0.24835999D-02 -0.23034761D-02 -0.28027320D-02  0.77825738D-03  0.21323803D-04
  0.00000000D+00  0.00000000D+00  0.23798146D-02 -0.00000000D+00 -0.00000000D+00
  0.20959710D-04  0.00000000D+00  0.00000000D+00 -0.92420336D-04 -0.00000000D+00
 -0.00000000D+00 -0.45732612D-06 -0.51593538D-06 -0.51593538D-06 -0.00000000D+00
 -0.00000000D+00 -0.00000000D+00 -0.11240091D-04 -0.67084173D-06 -0.67084173D-06
  0.00000000D+00  0.00000000D+00  0.00000000D+00
MO   24     MO 0.0        OCC NO =    0.0000000  ORB. ENERGY =    0.043160
 -0.95458545D-02  0.36609455D-02  0.15421944D-02 -0.13462553D-03  0.13393617D-02
 -0.30866791D-02  0.69326334D-03  0.44894875D-03  0.68008625D-03 -0.19394848D-03
  0.26699397D-03  0.00000000D+00 -0.00000000D+00 -0.87046736D-04 -0.00000000D+00
  0.00000000D+00  0.63130088D-04  0.00000000D+00 -0.00000000D+00 -0.65752630D-04
 -0.00000000D+00  0.00000000D+00  0.13676245D-05  0.16952009D-06  0.16952009D-06
  0.00000000D+00 -0.00000000D+00  0.00000000D+00  0.31588733D-06  0.12109492D-05
  0.12109492D-05 -0.00000000D+00  0.00000000D+00 -0.00000000D+00 -0.95458545D-02
  0.36609455D-02  0.15421944D-02 -0.13462553D-03  0.13393617D-02 -0.30866791D-02
  0.69326334D-03  0.44894875D-03  0.68008625D-03 -0.19394848D-03 -0.26699397D-03
 -0.00000000D+00  0.00000000D+00  0.87046736D-04  0.00000000D+00 -0.00000000D+00