[Molden Format]
[Atoms] AU
E+       1       4     0.00000000     0.00000000     0.00000000
E+       2       4    25.20000000     0.00000000     0.00000000
[GTO]
  1 0
s  1 1.00
   1.0000000000E-04   1.0000000000E+00
s  1 1.00
   3.0000000000E-04   1.0000000000E+00
s  1 1.00
   9.0000000000E-04   1.0000000000E+00
s  1 1.00
   2.7000000000E-03   1.0000000000E+00
s  1 1.00
   8.1000000000E-03   1.0000000000E+00
s  1 1.00
   2.4300000000E-02   1.0000000000E+00
s  1 1.00
   7.2900000000E-02   1.0000000000E+00
s  1 1.00
   2.1870000000E-01   1.0000000000E+00
s  1 1.00
   6.5610000000E-01   1.0000000000E+00
s  1 1.00
   1.9683000000E+00   1.0000000000E+00
p  1 1.00
   1.0000000000E-04   1.0000000000E+00
p  1 1.00
   3.0000000000E-04   1.0000000000E+00
p  1 1.00
   9.0000000000E-04   1.0000000000E+00
p  1 1.00
   2.7000000000E-03   1.0000000000E+00
d  1 1.00
   1.0000000000E-04   1.0000000000E+00
d  1 1.00
   3.0000000000E-04   1.0000000000E+00
 
  2 0
s  1 1.00
   1.0000000000E-04   1.0000000000E+00
s  1 1.00
   3.0000000000E-04   1.0000000000E+00
s  1 1.00
   9.0000000000E-04   1.0000000000E+00
s  1 1.00
   2.7000000000E-03   1.0000000000E+00
s  1 1.00
   8.1000000000E-03   1.0000000000E+00
s  1 1.00
   2.4300000000E-02   1.0000000000E+00
s  1 1.00
   7.2900000000E-02   1.0000000000E+00
s  1 1.00
   2.1870000000E-01   1.0000000000E+00
s  1 1.00
   6.5610000000E-01   1.0000000000E+00
s  1 1.00
   1.9683000000E+00   1.0000000000E+00
p  1 1.00
   1.0000000000E-04   1.0000000000E+00
p  1 1.00
   3.0000000000E-04   1.0000000000E+00
p  1 1.00
   9.0000000000E-04   1.0000000000E+00
p  1 1.00
   2.7000000000E-03   1.0000000000E+00
d  1 1.00
   1.0000000000E-04   1.0000000000E+00
d  1 1.00
   3.0000000000E-04   1.0000000000E+00
 
 
[MO]
Ene=    -3.19031E-03
Spin= Alpha
Occup=   1.0000000000
   1       0.04546865
   2      -0.02628656
   3      -0.02694389
   4      -0.27261100
   5      -0.20854024
   6      -0.17162460
   7      -0.10727845
   8       0.08734542
   9       0.00603832
  10      -0.00009720
  11      -0.21769134
  12      -0.00000000
  13       0.00000000
  14       0.05765351
  15       0.00000000
  16      -0.00000000
  17      -0.02991260
  18      -0.00000000
  19       0.00000000
  20       0.01096413
  21       0.00000000
  22      -0.00000000
  23      -0.04660325
  24       0.00142054
  25       0.00142054
  26      -0.00000000
  27       0.00000000
  28      -0.00000000
  29       0.02304040
  30       0.00435196
  31       0.00435196
  32       0.00000000
  33      -0.00000000
  34       0.00000000
  35       0.04546865
  36      -0.02628656
  37      -0.02694389
  38      -0.27261100
  39      -0.20854024
  40      -0.17162460
  41      -0.10727845
  42       0.08734542
  43       0.00603832
  44      -0.00009720
  45       0.21769134
  46       0.00000000
  47      -0.00000000
  48      -0.05765351
  49      -0.00000000
  50       0.00000000
  51       0.02991260
  52       0.00000000
  53      -0.00000000
  54      -0.01096413
  55      -0.00000000
  56       0.00000000
  57      -0.04660325
  58       0.00142054
  59       0.00142054
  60      -0.00000000
  61       0.00000000
  62       0.00000000
  63       0.02304040
  64       0.00435196
  65       0.00435196
  66       0.00000000
  67      -0.00000000
  68      -0.00000000
Ene=    -1.41124E-03
Spin= Alpha
Occup=   0.0000000000
   1       0.00076881
   2       0.00463004
   3       0.34051409
   4       0.35504716
   5       0.23453926
   6       0.19466115
   7       0.11406849
   8      -0.09406387
   9      -0.00673962
  10       0.00013627
  11      -0.00519768
  12      -0.00000000
  13      -0.00000000
  14      -0.01478261
  15       0.00000000
  16       0.00000000
  17       0.15343019
  18      -0.00000000
  19      -0.00000000
  20      -0.07261826
  21      -0.00000000
  22       0.00000000
  23      -0.01370376
  24      -0.00268828
  25      -0.00268828
  26      -0.00000000
  27      -0.00000000
  28       0.00000000
  29      -0.01800254
  30      -0.03302523
  31      -0.03302523
  32       0.00000000
  33       0.00000000
  34      -0.00000000
  35      -0.00076881
  36      -0.00463004
  37      -0.34051409
  38      -0.35504716
  39      -0.23453926
  40      -0.19466115
  41      -0.11406849
  42       0.09406387
  43       0.00673962
  44      -0.00013627
  45      -0.00519768
  46       0.00000000
  47       0.00000000
  48      -0.01478261
  49      -0.00000000
  50      -0.00000000
  51       0.15343019
  52       0.00000000
  53       0.00000000
  54      -0.07261826
  55      -0.00000000
  56       0.00000000
  57       0.01370376
  58       0.00268828
  59       0.00268828
  60      -0.00000000
  61      -0.00000000
  62      -0.00000000
  63       0.01800254
  64       0.03302523
  65       0.03302523
  66       0.00000000
  67       0.00000000
  68      -0.00000000
Ene=     3.84479E-03
Spin= Alpha
Occup=   0.0000000000
   1       0.90723824
   2      -0.13420630
   3      -1.14976767
   4       0.91021681
   5      -0.03536501
   6       0.12085447
   7       0.02939894
   8      -0.03160835
   9      -0.00354950
  10       0.00022727
  11      -3.06703636
  12      -0.00000000
  13       0.00000000
  14       0.99372758
  15      -0.00000000
  16       0.00000000
  17      -0.50913913
  18      -0.00000000
  19       0.00000000
  20       0.08295453
  21       0.00000000
  22      -0.00000000
  23      -0.69490257
  24      -0.01885512
  25      -0.01885512
  26      -0.00000000
  27       0.00000000
  28       0.00000000
  29       0.25505289
  30      -0.07367549
  31      -0.07367549
  32      -0.00000000
  33       0.00000000
  34      -0.00000000
  35       0.90723824
  36      -0.13420630
  37      -1.14976767
  38       0.91021681
  39      -0.03536501
  40       0.12085447
  41       0.02939894
  42      -0.03160835
  43      -0.00354950
  44       0.00022727
  45       3.06703636
  46       0.00000000
  47      -0.00000000
  48      -0.99372758
  49       0.00000000
  50      -0.00000000
  51       0.50913913
  52       0.00000000
  53      -0.00000000
  54      -0.08295453
  55       0.00000000
  56      -0.00000000
  57      -0.69490257
  58      -0.01885512
  59      -0.01885512
  60      -0.00000000
  61       0.00000000
  62      -0.00000000
  63       0.25505289
  64      -0.07367549
  65      -0.07367549
  66      -0.00000000
  67       0.00000000
  68       0.00000000
Ene=     4.36061E-03
Spin= Alpha
Occup=   0.0000000000
   1      -0.00000000
   2       0.00000000
   3      -0.00000000
   4       0.00000000
   5       0.00000000
   6       0.00000000
   7       0.00000000
   8      -0.00000000
   9      -0.00000000
  10       0.00000000
  11       0.00000000
  12      -0.02752115
  13       0.00980502
  14      -0.00000000
  15       0.10287195
  16      -0.03665041
  17       0.00000000
  18      -0.41448720
  19       0.14767026
  20      -0.00000000
  21      -0.19670928
  22       0.07008205
  23       0.00000000
  24      -0.00000000
  25      -0.00000000
  26      -0.02957698
  27       0.01053746
  28      -0.00000000
  29      -0.00000000
  30      -0.00000000
  31      -0.00000000
  32      -0.00360738
  33       0.00128521
  34       0.00000000
  35      -0.00000000
  36       0.00000000
  37      -0.00000000
  38       0.00000000
  39      -0.00000000
  40       0.00000000
  41       0.00000000
  42      -0.00000000
  43      -0.00000000
  44       0.00000000
  45      -0.00000000
  46      -0.02752115
  47       0.00980502
  48       0.00000000
  49       0.10287195
  50      -0.03665041
  51       0.00000000
  52      -0.41448720
  53       0.14767026
  54      -0.00000000
  55      -0.19670928
  56       0.07008205
  57       0.00000000
  58      -0.00000000
  59      -0.00000000
  60       0.02957698
  61      -0.01053746
  62       0.00000000
  63      -0.00000000
  64      -0.00000000
  65      -0.00000000
  66       0.00360738
  67      -0.00128521
  68      -0.00000000
Ene=     4.36061E-03
Spin= Alpha
Occup=   0.0000000000
   1       0.00000000
   2      -0.00000000
   3       0.00000000
   4      -0.00000000
   5       0.00000000
   6      -0.00000000
   7      -0.00000000
   8       0.00000000
   9      -0.00000000
  10       0.00000000
  11      -0.00000000
  12      -0.00980502
  13      -0.02752115
  14       0.00000000
  15       0.03665041
  16       0.10287195
  17       0.00000000
  18      -0.14767026
  19      -0.41448720
  20      -0.00000000
  21      -0.07008205
  22      -0.19670928
  23      -0.00000000
  24       0.00000000
  25       0.00000000
  26      -0.01053746
  27      -0.02957698
  28       0.00000000
  29       0.00000000
  30       0.00000000
  31       0.00000000
  32      -0.00128521
  33      -0.00360738
  34      -0.00000000
  35       0.00000000
  36      -0.00000000
  37      -0.00000000
  38      -0.00000000
  39      -0.00000000
  40      -0.00000000
  41       0.00000000
  42      -0.00000000
  43       0.00000000
  44      -0.00000000
  45       0.00000000
  46      -0.00980502
  47      -0.02752115
  48      -0.00000000
  49       0.03665041
  50       0.10287195
  51       0.00000000
  52      -0.14767026
  53      -0.41448720
  54      -0.00000000
  55      -0.07008205
  56      -0.19670928
  57      -0.00000000
  58       0.00000000
  59       0.00000000
  60       0.01053746
  61       0.02957698
  62      -0.00000000
  63       0.00000000
  64       0.00000000
  65       0.00000000
  66       0.00128521
  67       0.00360738
  68       0.00000000
Ene=     6.75004E-03
Spin= Alpha
Occup=   0.0000000000
   1       0.01610074
   2      -0.00110116
   3      -5.25117533
   4       0.19916552
   5       0.40905507
   6       0.05403917
   7       0.07911713
   8      -0.05635177
   9      -0.00259899
  10      -0.00013070
  11      -0.11566856
  12       0.00000000
  13      -0.00000000
  14      -0.00215080
  15       0.00000000
  16       0.00000000
  17      -1.52219872
  18      -0.00000000
  19      -0.00000000
  20       0.09919170
  21      -0.00000000
  22      -0.00000000
  23      -0.12735029
  24      -0.21605966
  25      -0.21605966
  26       0.00000000
  27      -0.00000000
  28      -0.00000000
  29      -0.32615411
  30      -0.17317341
  31      -0.17317341
  32       0.00000000
  33       0.00000000
  34       0.00000000
  35      -0.01610074
  36       0.00110116
  37       5.25117533
  38      -0.19916552
  39      -0.40905507
  40      -0.05403917
  41      -0.07911713
  42       0.05635177
  43       0.00259899
  44       0.00013070
  45      -0.11566856
  46      -0.00000000
  47       0.00000000
  48      -0.00215080
  49      -0.00000000
  50      -0.00000000
  51      -1.52219872
  52       0.00000000
  53       0.00000000
  54       0.09919170
  55       0.00000000
  56       0.00000000
  57       0.12735029
  58       0.21605966
  59       0.21605966
  60       0.00000000
  61      -0.00000000
  62       0.00000000
  63       0.32615411
  64       0.17317341
  65       0.17317341
  66       0.00000000
  67       0.00000000
  68      -0.00000000
Ene=     7.15301E-03
Spin= Alpha
Occup=   0.0000000000
   1       0.53628720
   2      -0.31931984
   3      -0.04576890
   4       0.60192997
   5      -0.22325284
   6       0.02153280
   7      -0.02302340
   8       0.01284359
   9      -0.00004643
  10       0.00012051
  11      -2.31046366
  12      -0.00000000
  13       0.00000000
  14       0.63190888
  15       0.00000000
  16      -0.00000000
  17      -0.27702246
  18      -0.00000000
  19       0.00000000
  20      -0.57968030
  21      -0.00000000
  22       0.00000000
  23      -0.50346376
  24       0.00657854
  25       0.00657854
  26      -0.00000000
  27       0.00000000
  28       0.00000000
  29       0.24112222
  30       0.03272908
  31       0.03272908
  32       0.00000000
  33      -0.00000000
  34      -0.00000000
  35       0.53628720
  36      -0.31931984
  37      -0.04576890
  38       0.60192997
  39      -0.22325284
  40       0.02153280
  41      -0.02302340
  42       0.01284359
  43      -0.00004643
  44       0.00012051
  45       2.31046366
  46       0.00000000
  47      -0.00000000
  48      -0.63190888
  49      -0.00000000
  50       0.00000000
  51       0.27702246
  52       0.00000000
  53      -0.00000000
  54       0.57968030
  55      -0.00000000
  56      -0.00000000
  57      -0.50346376
  58       0.00657854
  59       0.00657854
  60      -0.00000000
  61       0.00000000
  62      -0.00000000
  63       0.24112222
  64       0.03272908
  65       0.03272908
  66       0.00000000
  67      -0.00000000
  68       0.00000000
Ene=     7.20144E-03
Spin= Alpha
Occup=   0.0000000000
   1       0.00000000
   2      -0.00000000
   3      -0.00000000
   4      -0.00000000
   5       0.00000000
   6      -0.00000000
   7       0.00000000
   8      -0.00000000
   9      -0.00000000
  10      -0.00000000
  11       0.00000000
  12      -0.97161980
  13       7.38941460
  14      -0.00000000
  15       0.21358916
  16      -1.62439964
  17       0.00000000
  18      -0.07994500
  19       0.60800194
  20       0.00000000
  21      -0.08674207
  22       0.65969543
  23      -0.00000000
  24      -0.00000000
  25      -0.00000000
  26      -0.12204087
  27       0.92815170
  28       0.00000000
  29      -0.00000000
  30       0.00000000
  31       0.00000000
  32       0.03988908
  33      -0.30336652
  34      -0.00000000
  35      -0.00000000
  36       0.00000000
  37       0.00000000
  38      -0.00000000
  39       0.00000000
  40      -0.00000000
  41       0.00000000
  42       0.00000000
  43       0.00000000
  44      -0.00000000
  45       0.00000000
  46       0.97161980
  47      -7.38941460
  48      -0.00000000
  49      -0.21358916
  50       1.62439964
  51      -0.00000000
  52       0.07994500
  53      -0.60800194
  54      -0.00000000
  55       0.08674207
  56      -0.65969543
  57      -0.00000000
  58       0.00000000
  59       0.00000000
  60      -0.12204087
  61       0.92815170
  62      -0.00000000
  63       0.00000000
  64       0.00000000
  65       0.00000000
  66       0.03988908
  67      -0.30336652
  68       0.00000000
Ene=     7.20144E-03
Spin= Alpha
Occup=   0.0000000000
   1       0.00000000
   2       0.00000000
   3       0.00000000
   4       0.00000000
   5      -0.00000000
   6      -0.00000000
   7      -0.00000000
   8       0.00000000
   9       0.00000000
  10      -0.00000000
  11      -0.00000000
  12      -7.38941460
  13      -0.97161980
  14       0.00000000
  15       1.62439964
  16       0.21358916
  17      -0.00000000
  18      -0.60800194
  19      -0.07994500
  20      -0.00000000
  21      -0.65969543
  22      -0.08674207
  23      -0.00000000
  24       0.00000000
  25       0.00000000
  26      -0.92815170
  27      -0.12204087
  28       0.00000000
  29       0.00000000
  30       0.00000000
  31       0.00000000
  32       0.30336652
  33       0.03988908
  34      -0.00000000
  35      -0.00000000
  36      -0.00000000
  37       0.00000000
  38      -0.00000000
  39       0.00000000
  40      -0.00000000
  41       0.00000000
  42      -0.00000000
  43       0.00000000
  44      -0.00000000
  45       0.00000000
  46       7.38941460
  47       0.97161980
  48       0.00000000
  49      -1.62439964
  50      -0.21358916
  51       0.00000000
  52       0.60800194
  53       0.07994500
  54       0.00000000
  55       0.65969543
  56       0.08674207
  57      -0.00000000
  58       0.00000000
  59       0.00000000
  60      -0.92815170
  61      -0.12204087
  62      -0.00000000
  63      -0.00000000
  64       0.00000000
  65       0.00000000
  66       0.30336652
  67       0.03988908
  68       0.00000000
Ene=     1.09281E-02
Spin= Alpha
Occup=   0.0000000000
   1       0.00000000
   2       0.00000000
   3      -0.00000000
   4      -0.00000000
   5      -0.00000000
   6      -0.00000000
   7      -0.00000000
   8       0.00000000
   9       0.00000000
  10       0.00000000
  11      -0.00000000
  12       0.03458293
  13       0.03310488
  14      -0.00000000
  15      -0.12906625
  16      -0.12355007
  17      -0.00000000
  18       0.61266242
  19       0.58647774
  20      -0.00000000
  21      -0.64674160
  22      -0.61910040
  23      -0.00000000
  24      -0.00000000
  25      -0.00000000
  26       0.02740394
  27       0.02623271
  28      -0.00000000
  29      -0.00000000
  30       0.00000000
  31       0.00000000
  32       0.01447413
  33       0.01385552
  34       0.00000000
  35       0.00000000
  36       0.00000000
  37       0.00000000
  38       0.00000000
  39       0.00000000
  40       0.00000000
  41       0.00000000
  42      -0.00000000
  43      -0.00000000
  44       0.00000000
  45       0.00000000
  46       0.03458293
  47       0.03310488
  48       0.00000000
  49      -0.12906625
  50      -0.12355007
  51      -0.00000000
  52       0.61266242
  53       0.58647774
  54      -0.00000000
  55      -0.64674160
  56      -0.61910040
  57      -0.00000000
  58       0.00000000
  59       0.00000000
  60      -0.02740394
  61      -0.02623271
  62       0.00000000
  63       0.00000000
  64      -0.00000000
  65       0.00000000
  66      -0.01447413
  67      -0.01385552
  68      -0.00000000
Ene=     1.09281E-02
Spin= Alpha
Occup=   0.0000000000
   1       0.00000000
   2       0.00000000
   3      -0.00000000
   4      -0.00000000
   5       0.00000000
   6      -0.00000000
   7      -0.00000000
   8       0.00000000
   9      -0.00000000
  10       0.00000000
  11      -0.00000000
  12      -0.03310488
  13       0.03458293
  14      -0.00000000
  15       0.12355007
  16      -0.12906625
  17      -0.00000000
  18      -0.58647774
  19       0.61266242
  20      -0.00000000
  21       0.61910040
  22      -0.64674160
  23      -0.00000000
  24      -0.00000000
  25      -0.00000000
  26      -0.02623271
  27       0.02740394
  28      -0.00000000
  29      -0.00000000
  30       0.00000000
  31       0.00000000
  32      -0.01385552
  33       0.01447413
  34       0.00000000
  35       0.00000000
  36       0.00000000
  37       0.00000000
  38       0.00000000
  39       0.00000000
  40       0.00000000
  41       0.00000000
  42      -0.00000000
  43      -0.00000000
  44       0.00000000
  45       0.00000000
  46      -0.03310488
  47       0.03458293
  48       0.00000000
  49       0.12355007
  50      -0.12906625
  51      -0.00000000
  52      -0.58647774
  53       0.61266242
  54      -0.00000000
  55       0.61910040
  56      -0.64674160
  57      -0.00000000
  58       0.00000000
  59       0.00000000
  60       0.02623271
  61      -0.02740394
  62       0.00000000
  63       0.00000000
  64      -0.00000000
  65      -0.00000000
  66       0.01385552
  67      -0.01447413
  68      -0.00000000
Ene=     1.09632E-02
Spin= Alpha
Occup=   0.0000000000
   1       0.01127211
   2      -0.03123999
   3      -7.85110130
   4      -0.41032769
   5      -0.02527970
   6      -0.05708886
   7      -0.01553516
   8       0.01595876
   9       0.00170924
  10      -0.00010089
  11      -0.08268468
  12       0.00000000
  13      -0.00000000
  14       0.08947625
  15       0.00000000
  16       0.00000000
  17      -2.63667796
  18       0.00000000
  19      -0.00000000
  20      -1.70207843
  21      -0.00000000
  22       0.00000000
  23      -0.04413510
  24      -0.19655383
  25      -0.19655383
  26       0.00000000
  27      -0.00000000
  28      -0.00000000
  29      -0.20909952
  30       0.02763047
  31       0.02763047
  32       0.00000000
  33       0.00000000
  34       0.00000000
  35      -0.01127211
  36       0.03123999
  37       7.85110130
  38       0.41032769
  39       0.02527970
  40       0.05708886
  41       0.01553516
  42      -0.01595876
  43      -0.00170924
  44       0.00010089
  45      -0.08268468
  46      -0.00000000
  47       0.00000000
  48       0.08947625
  49      -0.00000000
  50      -0.00000000
  51      -2.63667796
  52       0.00000000
  53      -0.00000000
  54      -1.70207843
  55      -0.00000000
  56       0.00000000
  57       0.04413510
  58       0.19655383
  59       0.19655383
  60       0.00000000
  61      -0.00000000
  62       0.00000000
  63       0.20909952
  64      -0.02763047
  65      -0.02763047
  66       0.00000000
  67       0.00000000
  68      -0.00000000
Ene=     1.28109E-02
Spin= Alpha
Occup=   0.0000000000
   1       0.74498147
   2      -0.76275654
   3       0.01528863
   4       1.51941138
   5      -1.20927134
   6       0.07885434
   7      -0.14192030
   8       0.08288750
   9       0.00042477
  10       0.00068177
  11      -4.82107347
  12      -0.00000000
  13       0.00000000
  14       0.82732436
  15       0.00000000
  16      -0.00000000
  17      -0.70095866
  18      -0.00000000
  19       0.00000000
  20       0.32978725
  21       0.00000000
  22      -0.00000000
  23      -0.99327158
  24       0.06898179
  25       0.06898179
  26      -0.00000000
  27       0.00000000
  28       0.00000000
  29       0.48184910
  30       0.24029928
  31       0.24029928
  32       0.00000000
  33      -0.00000000
  34      -0.00000000
  35       0.74498147
  36      -0.76275654
  37       0.01528863
  38       1.51941138
  39      -1.20927134
  40       0.07885434
  41      -0.14192030
  42       0.08288750
  43       0.00042477
  44       0.00068177
  45       4.82107347
  46       0.00000000
  47      -0.00000000
  48      -0.82732436
  49      -0.00000000
  50       0.00000000
  51       0.70095866
  52       0.00000000
  53      -0.00000000
  54      -0.32978725
  55      -0.00000000
  56       0.00000000
  57      -0.99327158
  58       0.06898179
  59       0.06898179
  60      -0.00000000
  61       0.00000000
  62      -0.00000000
  63       0.48184910
  64       0.24029928
  65       0.24029928
  66       0.00000000
  67      -0.00000000
  68       0.00000000
Ene=     1.62679E-02
Spin= Alpha
Occup=   0.0000000000
   1      -0.00000000
   2       0.00000000
   3       0.00000000
   4      -0.00000000
   5       0.00000000
   6      -0.00000000
   7       0.00000000
   8      -0.00000000
   9      -0.00000000
  10      -0.00000000
  11       0.00000000
  12      -5.68698180
  13     -20.67258583
  14       0.00000000
  15       1.20538181
  16       4.38164915
  17       0.00000000
  18      -0.57868946
  19      -2.10357758
  20      -0.00000000
  21       0.28968309
  22       1.05301876
  23       0.00000000
  24      -0.00000000
  25       0.00000000
  26      -0.71408434
  27      -2.59574769
  28      -0.00000000
  29       0.00000000
  30       0.00000000
  31       0.00000000
  32       0.22185787
  33       0.80646923
  34       0.00000000
  35       0.00000000
  36      -0.00000000
  37      -0.00000000
  38       0.00000000
  39      -0.00000000
  40       0.00000000
  41      -0.00000000
  42       0.00000000
  43       0.00000000
  44       0.00000000
  45      -0.00000000
  46       5.68698180
  47      20.67258583
  48       0.00000000
  49      -1.20538181
  50      -4.38164915
  51      -0.00000000
  52       0.57868946
  53       2.10357758
  54       0.00000000
  55      -0.28968309
  56      -1.05301876
  57       0.00000000
  58      -0.00000000
  59      -0.00000000
  60      -0.71408434
  61      -2.59574769
  62       0.00000000
  63      -0.00000000
  64      -0.00000000
  65      -0.00000000
  66       0.22185787
  67       0.80646923
  68      -0.00000000
Ene=     1.62679E-02
Spin= Alpha
Occup=   0.0000000000
   1      -0.00000000
   2       0.00000000
   3       0.00000000
   4      -0.00000000
   5       0.00000000
   6      -0.00000000
   7       0.00000000
   8      -0.00000000
   9       0.00000000
  10      -0.00000000
  11       0.00000000
  12      20.67258583
  13      -5.68698180
  14      -0.00000000
  15      -4.38164915
  16       1.20538181
  17       0.00000000
  18       2.10357758
  19      -0.57868946
  20      -0.00000000
  21      -1.05301876
  22       0.28968309
  23       0.00000000
  24      -0.00000000
  25      -0.00000000
  26       2.59574769
  27      -0.71408434
  28      -0.00000000
  29      -0.00000000
  30      -0.00000000
  31      -0.00000000
  32      -0.80646923
  33       0.22185787
  34       0.00000000
  35       0.00000000
  36      -0.00000000
  37      -0.00000000
  38       0.00000000
  39      -0.00000000
  40       0.00000000
  41      -0.00000000
  42       0.00000000
  43      -0.00000000
  44       0.00000000
  45      -0.00000000
  46     -20.67258583
  47       5.68698180
  48       0.00000000
  49       4.38164915
  50      -1.20538181
  51      -0.00000000
  52      -2.10357758
  53       0.57868946
  54      -0.00000000
  55       1.05301876
  56      -0.28968309
  57       0.00000000
  58      -0.00000000
  59      -0.00000000
  60       2.59574769
  61      -0.71408434
  62       0.00000000
  63      -0.00000000
  64      -0.00000000
  65      -0.00000000
  66      -0.80646923
  67       0.22185787
  68      -0.00000000
Ene=     1.65428E-02
Spin= Alpha
Occup=   0.0000000000
   1       0.01430731
   2       0.03532950
   3      -3.59760640
   4       3.40538746
   5      -1.39055777
   6       0.12021762
   7      -0.12154444
   8       0.06616165
   9      -0.00066464
  10       0.00068828
  11      -0.10058823
  12      -0.00000000
  13       0.00000000
  14      -0.14501048
  15       0.00000000
  16       0.00000000
  17      -0.40770609
  18       0.00000000
  19      -0.00000000
  20       0.68772079
  21      -0.00000000
  22       0.00000000
  23      -0.15084769
  24      -0.14398905
  25      -0.14398905
  26      -0.00000000
  27       0.00000000
  28       0.00000000
  29      -0.36021145
  30      -0.33488402
  31      -0.33488402
  32       0.00000000
  33       0.00000000
  34      -0.00000000
  35      -0.01430731
  36      -0.03532950
  37       3.59760640
  38      -3.40538746
  39       1.39055777
  40      -0.12021762
  41       0.12154444
  42      -0.06616165
  43       0.00066464
  44      -0.00068828
  45      -0.10058823
  46       0.00000000
  47      -0.00000000
  48      -0.14501048
  49      -0.00000000
  50      -0.00000000
  51      -0.40770609
  52      -0.00000000
  53       0.00000000
  54       0.68772079
  55       0.00000000
  56      -0.00000000
  57       0.15084769
  58       0.14398905
  59       0.14398905
  60      -0.00000000
  61       0.00000000
  62      -0.00000000
  63       0.36021145
  64       0.33488402
  65       0.33488402
  66       0.00000000
  67       0.00000000
  68       0.00000000
Ene=     1.77360E-02
Spin= Alpha
Occup=   0.0000000000
   1       2.95492492
   2      -2.44654011
   3       1.79085350
   4      -1.20168585
   5       0.52231646
   6      -0.02968143
   7       0.04610939
   8      -0.02687439
   9      -0.00020814
  10      -0.00021173
  11     -13.50963440
  12      -0.00000000
  13       0.00000000
  14       3.82574494
  15       0.00000000
  16      -0.00000000
  17      -1.57483797
  18       0.00000000
  19      -0.00000000
  20       0.68957005
  21      -0.00000000
  22       0.00000000
  23      -2.92552608
  24       0.06484666
  25       0.06484666
  26      -0.00000000
  27       0.00000000
  28       0.00000000
  29       1.61155561
  30       0.32272511
  31       0.32272511
  32       0.00000000
  33      -0.00000000
  34       0.00000000
  35       2.95492492
  36      -2.44654011
  37       1.79085350
  38      -1.20168585
  39       0.52231646
  40      -0.02968143
  41       0.04610939
  42      -0.02687439
  43      -0.00020814
  44      -0.00021173
  45      13.50963440
  46       0.00000000
  47      -0.00000000
  48      -3.82574494
  49      -0.00000000
  50       0.00000000
  51       1.57483797
  52      -0.00000000
  53       0.00000000
  54      -0.68957005
  55       0.00000000
  56      -0.00000000
  57      -2.92552608
  58       0.06484666
  59       0.06484666
  60      -0.00000000
  61       0.00000000
  62      -0.00000000
  63       1.61155561
  64       0.32272511
  65       0.32272511
  66       0.00000000
  67      -0.00000000
  68       0.00000000
Ene=     2.28573E-02
Spin= Alpha
Occup=   0.0000000000
   1      -0.06424743
   2      -0.26356153
   3     -15.15065468
   4       2.66182384
   5      -0.69349612
   6       0.10443797
   7      -0.04464527
   8       0.01838377
   9      -0.00159417
  10       0.00039118
  11       0.44606475
  12       0.00000000
  13      -0.00000000
  14       0.80298836
  15       0.00000000
  16      -0.00000000
  17      -7.90274047
  18      -0.00000000
  19       0.00000000
  20       1.93856063
  21       0.00000000
  22      -0.00000000
  23       0.91683902
  24       0.50024025
  25       0.50024025
  26       0.00000000
  27      -0.00000000
  28      -0.00000000
  29       1.45680674
  30       1.94343920
  31       1.94343920
  32       0.00000000
  33      -0.00000000
  34      -0.00000000
  35       0.06424743
  36       0.26356153
  37      15.15065468
  38      -2.66182384
  39       0.69349612
  40      -0.10443797
  41       0.04464527
  42      -0.01838377
  43       0.00159417
  44      -0.00039118
  45       0.44606475
  46      -0.00000000
  47       0.00000000
  48       0.80298836
  49      -0.00000000
  50       0.00000000
  51      -7.90274047
  52       0.00000000
  53      -0.00000000
  54       1.93856063
  55      -0.00000000
  56       0.00000000
  57      -0.91683902
  58      -0.50024025
  59      -0.50024025
  60       0.00000000
  61      -0.00000000
  62       0.00000000
  63      -1.45680674
  64      -1.94343920
  65      -1.94343920
  66       0.00000000
  67      -0.00000000
  68       0.00000000
Ene=     2.82823E-02
Spin= Alpha
Occup=   0.0000000000
   1      -4.71646834
   2      -1.53911939
   3       4.69044121
   4      -2.22414354
   5       0.53433710
   6       0.14283939
   7       0.02780476
   8      -0.03260070
   9      -0.00406140
  10       0.00027658
  11       5.69320125
  12       0.00000000