[Molden Format]
[Title]
 Molden2AIM, Version 3.1.0 (02/25/2015)           Time: Thu Oct 17 19:55:56 2024

[Atoms] AU
E+       1       4     0.00000000     0.00000000     0.00000000
E+       2       4    52.60000000     0.00000000     0.00000000
[GTO]
    1 0
 S   1 1.0
    0.1000000000D-03      0.1000000000D+01
 S   1 1.0
    0.3000000000D-03      0.1000000000D+01
 S   1 1.0
    0.9000000000D-03      0.1000000000D+01
 S   1 1.0
    0.2700000000D-02      0.1000000000D+01
 S   1 1.0
    0.8100000000D-02      0.1000000000D+01
 S   1 1.0
    0.2430000000D-01      0.1000000000D+01
 S   1 1.0
    0.7290000000D-01      0.1000000000D+01
 S   1 1.0
    0.2187000000D+00      0.1000000000D+01
 S   1 1.0
    0.6561000000D+00      0.1000000000D+01
 S   1 1.0
    0.1968300000D+01      0.1000000000D+01
 P   1 1.0
    0.1000000000D-03      0.1000000000D+01
 P   1 1.0
    0.3000000000D-03      0.1000000000D+01
 P   1 1.0
    0.9000000000D-03      0.1000000000D+01
 P   1 1.0
    0.2700000000D-02      0.1000000000D+01
 D   1 1.0
    0.1000000000D-03      0.1000000000D+01
 D   1 1.0
    0.3000000000D-03      0.1000000000D+01

    2 0
 S   1 1.0
    0.1000000000D-03      0.1000000000D+01
 S   1 1.0
    0.3000000000D-03      0.1000000000D+01
 S   1 1.0
    0.9000000000D-03      0.1000000000D+01
 S   1 1.0
    0.2700000000D-02      0.1000000000D+01
 S   1 1.0
    0.8100000000D-02      0.1000000000D+01
 S   1 1.0
    0.2430000000D-01      0.1000000000D+01
 S   1 1.0
    0.7290000000D-01      0.1000000000D+01
 S   1 1.0
    0.2187000000D+00      0.1000000000D+01
 S   1 1.0
    0.6561000000D+00      0.1000000000D+01
 S   1 1.0
    0.1968300000D+01      0.1000000000D+01
 P   1 1.0
    0.1000000000D-03      0.1000000000D+01
 P   1 1.0
    0.3000000000D-03      0.1000000000D+01
 P   1 1.0
    0.9000000000D-03      0.1000000000D+01
 P   1 1.0
    0.2700000000D-02      0.1000000000D+01
 D   1 1.0
    0.1000000000D-03      0.1000000000D+01
 D   1 1.0
    0.3000000000D-03      0.1000000000D+01


[MO]
 Ene=          0.00176481
 Spin= Alpha
 Occup=        1.00000000
    1       -0.1813482300
    2       -0.1276116400
    3        0.3143310800
    4        0.1608240800
    5        0.1734965800
    6        0.1504260600
    7        0.0903397000
    8       -0.0736250700
    9       -0.0051196300
   10        0.0000844800
   11        0.1502111300
   12        0.0000000000
   13        0.0000000000
   14       -0.0446885100
   15       -0.0000000000
   16       -0.0000000000
   17        0.0833851700
   18        0.0000000000
   19        0.0000000000
   20        0.2005558700
   21       -0.0000000000
   22       -0.0000000000
   23        0.0811536100
   24        0.0152361800
   25        0.0152361800
   26        0.0000000000
   27        0.0000000000
   28        0.0000000000
   29        0.0527721300
   30        0.0524392600
   31        0.0524392600
   32       -0.0000000000
   33       -0.0000000000
   34        0.0000000000
   35       -0.1813482300
   36       -0.1276116400
   37        0.3143310800
   38        0.1608240800
   39        0.1734965800
   40        0.1504260600
   41        0.0903397000
   42       -0.0736250700
   43       -0.0051196300
   44        0.0000844800
   45       -0.1502111300
   46       -0.0000000000
   47       -0.0000000000
   48        0.0446885100
   49        0.0000000000
   50        0.0000000000
   51       -0.0833851700
   52       -0.0000000000
   53       -0.0000000000
   54       -0.2005558700
   55        0.0000000000
   56       -0.0000000000
   57        0.0811536100
   58        0.0152361800
   59        0.0152361800
   60        0.0000000000
   61        0.0000000000
   62        0.0000000000
   63        0.0527721300
   64        0.0524392600
   65        0.0524392600
   66       -0.0000000000
   67       -0.0000000000
   68       -0.0000000000
 Ene=          0.00247782
 Spin= Alpha
 Occup=        0.00000000
    1       -0.0213251900
    2        1.3035275300
    3       -0.0009846600
    4        0.3680555300
    5        0.1754415600
    6        0.1991302600
    7        0.1050364200
    8       -0.0881712100
    9       -0.0066011500
   10        0.0001678700
   11        0.0263693100
   12        0.0000000000
   13       -0.0000000000
   14        0.7429976500
   15       -0.0000000000
   16        0.0000000000
   17       -0.1228450500
   18        0.0000000000
   19        0.0000000000
   20        0.2537408100
   21       -0.0000000000
   22       -0.0000000000
   23        0.0220318400
   24        0.0191210700
   25        0.0191210700
   26        0.0000000000
   27       -0.0000000000
   28       -0.0000000000
   29        0.2515921400
   30        0.0520655600
   31        0.0520655600
   32       -0.0000000000
   33        0.0000000000
   34       -0.0000000000
   35        0.0213251900
   36       -1.3035275300
   37        0.0009846600
   38       -0.3680555300
   39       -0.1754415600
   40       -0.1991302600
   41       -0.1050364200
   42        0.0881712100
   43        0.0066011500
   44       -0.0001678700
   45        0.0263693100
   46       -0.0000000000
   47        0.0000000000
   48        0.7429976500
   49        0.0000000000
   50       -0.0000000000
   51       -0.1228450500
   52       -0.0000000000
   53        0.0000000000
   54        0.2537408100
   55        0.0000000000
   56       -0.0000000000
   57       -0.0220318400
   58       -0.0191210700
   59       -0.0191210700
   60        0.0000000000
   61       -0.0000000000
   62        0.0000000000
   63       -0.2515921400
   64       -0.0520655600
   65       -0.0520655600
   66        0.0000000000
   67        0.0000000000
   68       -0.0000000000
 Ene=          0.00602548
 Spin= Alpha
 Occup=        0.00000000
    1        0.6008344800
    2        0.1577035700
    3       -0.9157909400
    4        0.6519335600
    5        0.0929989500
    6        0.1749936800
    7        0.0691149000
    8       -0.0625254900
    9       -0.0054875600
   10        0.0002314200
   11       -0.8010982500
   12        0.0000000000
   13        0.0000000000
   14        0.2889647300
   15        0.0000000000
   16       -0.0000000000
   17       -0.5195403100
   18       -0.0000000000
   19        0.0000000000
   20        0.1553859400
   21       -0.0000000000
   22       -0.0000000000
   23       -0.3916090100
   24       -0.0267216100
   25       -0.0267216100
   26        0.0000000000
   27        0.0000000000
   28        0.0000000000
   29       -0.0189436200
   30       -0.0867996300
   31       -0.0867996300
   32        0.0000000000
   33       -0.0000000000
   34       -0.0000000000
   35        0.6008344800
   36        0.1577035700
   37       -0.9157909400
   38        0.6519335600
   39        0.0929989500
   40        0.1749936800
   41        0.0691149000
   42       -0.0625254900
   43       -0.0054875600
   44        0.0002314200
   45        0.8010982500
   46       -0.0000000000
   47       -0.0000000000
   48       -0.2889647300
   49       -0.0000000000
   50        0.0000000000
   51        0.5195403100
   52        0.0000000000
   53       -0.0000000000
   54       -0.1553859400
   55       -0.0000000000
   56        0.0000000000
   57       -0.3916090100
   58       -0.0267216100
   59       -0.0267216100
   60        0.0000000000
   61        0.0000000000
   62       -0.0000000000
   63       -0.0189436200
   64       -0.0867996300
   65       -0.0867996300
   66        0.0000000000
   67       -0.0000000000
   68        0.0000000000
 Ene=          0.01232950
 Spin= Alpha
 Occup=        0.00000000
    1       -0.0008219000
    2        3.1116220500
    3       -0.8682308700
    4       -0.2986997800
    5        0.6020110200
    6        0.0781874700
    7        0.1042519100
    8       -0.0744365000
    9       -0.0034931100
   10       -0.0001661800
   11       -0.0981817200
   12       -0.0000000000
   13        0.0000000000
   14        1.5615512000
   15        0.0000000000
   16       -0.0000000000
   17       -0.2522223000
   18       -0.0000000000
   19        0.0000000000
   20       -0.4384934300
   21        0.0000000000
   22        0.0000000000
   23       -0.0852395400
   24       -0.0666914900
   25       -0.0666914900
   26       -0.0000000000
   27        0.0000000000
   28       -0.0000000000
   29        0.2945618400
   30       -0.1254493900
   31       -0.1254493900
   32       -0.0000000000
   33       -0.0000000000
   34        0.0000000000
   35        0.0008219000
   36       -3.1116220500
   37        0.8682308700
   38        0.2986997800
   39       -0.6020110200
   40       -0.0781874700
   41       -0.1042519100
   42        0.0744365000
   43        0.0034931100
   44        0.0001661800
   45       -0.0981817200
   46        0.0000000000
   47       -0.0000000000
   48        1.5615512000
   49        0.0000000000
   50        0.0000000000
   51       -0.2522223000
   52        0.0000000000
   53       -0.0000000000
   54       -0.4384934300
   55        0.0000000000
   56       -0.0000000000
   57        0.0852395400
   58        0.0666914900
   59        0.0666914900
   60       -0.0000000000
   61        0.0000000000
   62        0.0000000000
   63       -0.2945618400
   64        0.1254493900
   65        0.1254493900
   66       -0.0000000000
   67       -0.0000000000
   68       -0.0000000000
 Ene=          0.01363950
 Spin= Alpha
 Occup=        0.00000000
    1       -0.0000000000
    2        0.0000000000
    3       -0.0000000000
    4       -0.0000000000
    5        0.0000000000
    6        0.0000000000
    7        0.0000000000
    8       -0.0000000000
    9       -0.0000000000
   10       -0.0000000000
   11        0.0000000000
   12       -0.0542621700
   13        0.0057510400
   14        0.0000000000
   15        0.1419398000
   16       -0.0150436500
   17       -0.0000000000
   18       -0.4917753000
   19        0.0521213500
   20       -0.0000000000
   21       -0.2550293400
   22        0.0270295700
   23        0.0000000000
   24        0.0000000000
   25       -0.0000000000
   26        0.0587536900
   27       -0.0062270800
   28       -0.0000000000
   29        0.0000000000
   30       -0.0000000000
   31       -0.0000000000
   32       -0.0990771600
   33        0.0105008000
   34        0.0000000000
   35       -0.0000000000
   36       -0.0000000000
   37        0.0000000000
   38       -0.0000000000
   39       -0.0000000000
   40       -0.0000000000
   41       -0.0000000000
   42        0.0000000000
   43        0.0000000000
   44       -0.0000000000
   45       -0.0000000000
   46       -0.0542621700
   47        0.0057510400
   48        0.0000000000
   49        0.1419398000
   50       -0.0150436500
   51       -0.0000000000
   52       -0.4917753000
   53        0.0521213500
   54        0.0000000000
   55       -0.2550293400
   56        0.0270295700
   57        0.0000000000
   58       -0.0000000000
   59        0.0000000000
   60       -0.0587536900
   61        0.0062270800
   62       -0.0000000000
   63       -0.0000000000
   64       -0.0000000000
   65       -0.0000000000
   66        0.0990771600
   67       -0.0105008000
   68        0.0000000000
 Ene=          0.01363950
 Spin= Alpha
 Occup=        0.00000000
    1       -0.0000000000
    2       -0.0000000000
    3        0.0000000000
    4        0.0000000000
    5       -0.0000000000
    6       -0.0000000000
    7       -0.0000000000
    8        0.0000000000
    9        0.0000000000
   10        0.0000000000
   11        0.0000000000
   12        0.0057510400
   13        0.0542621700
   14       -0.0000000000
   15       -0.0150436500
   16       -0.1419398000
   17        0.0000000000
   18        0.0521213500
   19        0.4917753000
   20        0.0000000000
   21        0.0270295700
   22        0.2550293400
   23        0.0000000000
   24       -0.0000000000
   25       -0.0000000000
   26       -0.0062270800
   27       -0.0587536900
   28       -0.0000000000
   29       -0.0000000000
   30        0.0000000000
   31        0.0000000000
   32        0.0105008000
   33        0.0990771600
   34       -0.0000000000
   35       -0.0000000000
   36        0.0000000000
   37       -0.0000000000
   38        0.0000000000
   39       -0.0000000000
   40        0.0000000000
   41       -0.0000000000
   42        0.0000000000
   43        0.0000000000
   44       -0.0000000000
   45       -0.0000000000
   46        0.0057510400
   47        0.0542621700
   48       -0.0000000000
   49       -0.0150436500
   50       -0.1419398000
   51        0.0000000000
   52        0.0521213500
   53        0.4917753000
   54       -0.0000000000
   55        0.0270295700
   56        0.2550293400
   57        0.0000000000
   58        0.0000000000
   59        0.0000000000
   60        0.0062270800
   61        0.0587536900
   62        0.0000000000
   63        0.0000000000
   64        0.0000000000
   65        0.0000000000
   66       -0.0105008000
   67       -0.0990771600
   68       -0.0000000000
 Ene=          0.01413000
 Spin= Alpha
 Occup=        0.00000000
    1        0.2566506500
    2        0.3637926600
    3        0.2001696300
    4       -1.2846874400
    5        0.8431340100
    6       -0.0238716600
    7        0.1092266700
    8       -0.0669897400
    9       -0.0010088000
   10       -0.0004555800
   11        0.5466249700
   12       -0.0000000000
   13        0.0000000000
   14       -0.1208089200
   15       -0.0000000000
   16       -0.0000000000
   17        0.5964768500
   18        0.0000000000
   19        0.0000000000
   20       -0.8128844700
   21        0.0000000000
   22        0.0000000000
   23        0.1666885600
   24       -0.0782465300
   25       -0.0782465300
   26       -0.0000000000
   27        0.0000000000
   28        0.0000000000
   29       -0.2154144300
   30       -0.2517505900
   31       -0.2517505900
   32        0.0000000000
   33       -0.0000000000
   34       -0.0000000000
   35        0.2566506500
   36        0.3637926600
   37        0.2001696300
   38       -1.2846874400
   39        0.8431340100
   40       -0.0238716600
   41        0.1092266700
   42       -0.0669897400
   43       -0.0010088000
   44       -0.0004555800
   45       -0.5466249700
   46        0.0000000000
   47       -0.0000000000
   48        0.1208089200
   49       -0.0000000000
   50        0.0000000000
   51       -0.5964768500
   52        0.0000000000
   53        0.0000000000
   54        0.8128844700
   55        0.0000000000
   56        0.0000000000
   57        0.1666885600
   58       -0.0782465300
   59       -0.0782465300
   60       -0.0000000000
   61        0.0000000000
   62       -0.0000000000
   63       -0.2154144300
   64       -0.2517505900
   65       -0.2517505900
   66        0.0000000000
   67       -0.0000000000
   68        0.0000000000
 Ene=          0.01598170
 Spin= Alpha
 Occup=        0.00000000
    1       -0.0000000000
    2       -0.0000000000
    3        0.0000000000
    4       -0.0000000000
    5        0.0000000000
    6       -0.0000000000
    7        0.0000000000
    8       -0.0000000000
    9        0.0000000000
   10       -0.0000000000
   11       -0.0000000000
   12        0.0019069500
   13        0.0057954400
   14       -0.0000000000
   15        0.0165379800
   16        0.0502607300
   17        0.0000000000
   18        0.0102715700
   19        0.0312164500
   20       -0.0000000000
   21        0.2177552200
   22        0.6617821000
   23        0.0000000000
   24       -0.0000000000
   25       -0.0000000000
   26       -0.0016766200
   27       -0.0050954500
   28        0.0000000000
   29       -0.0000000000
   30        0.0000000000
   31        0.0000000000
   32        0.0134286800
   33        0.0408112300
   34        0.0000000000
   35       -0.0000000000
   36        0.0000000000
   37       -0.0000000000
   38        0.0000000000
   39       -0.0000000000
   40        0.0000000000
   41       -0.0000000000
   42        0.0000000000
   43       -0.0000000000
   44        0.0000000000
   45       -0.0000000000
   46       -0.0019069500
   47       -0.0057954400
   48       -0.0000000000
   49       -0.0165379800
   50       -0.0502607300
   51        0.0000000000
   52       -0.0102715700
   53       -0.0312164500
   54       -0.0000000000
   55       -0.2177552200
   56       -0.6617821000
   57        0.0000000000
   58        0.0000000000
   59        0.0000000000
   60       -0.0016766200
   61       -0.0050954500
   62       -0.0000000000
   63        0.0000000000
   64        0.0000000000
   65        0.0000000000
   66        0.0134286800
   67        0.0408112300
   68        0.0000000000
 Ene=          0.01598170
 Spin= Alpha
 Occup=        0.00000000
    1       -0.0000000000
    2        0.0000000000
    3       -0.0000000000
    4        0.0000000000
    5       -0.0000000000
    6        0.0000000000
    7       -0.0000000000
    8        0.0000000000
    9       -0.0000000000
   10        0.0000000000
   11       -0.0000000000
   12       -0.0057954400
   13        0.0019069500
   14        0.0000000000
   15       -0.0502607300
   16        0.0165379800
   17       -0.0000000000
   18       -0.0312164500
   19        0.0102715700
   20        0.0000000000
   21       -0.6617821000
   22        0.2177552200
   23       -0.0000000000
   24        0.0000000000
   25        0.0000000000
   26        0.0050954500
   27       -0.0016766200
   28       -0.0000000000
   29        0.0000000000
   30        0.0000000000
   31        0.0000000000
   32       -0.0408112300
   33        0.0134286800
   34        0.0000000000
   35        0.0000000000
   36       -0.0000000000
   37        0.0000000000
   38       -0.0000000000
   39        0.0000000000
   40       -0.0000000000
   41        0.0000000000
   42       -0.0000000000
   43        0.0000000000
   44       -0.0000000000
   45        0.0000000000
   46        0.0057954400
   47       -0.0019069500
   48        0.0000000000
   49        0.0502607300
   50       -0.0165379800
   51       -0.0000000000
   52        0.0312164500
   53       -0.0102715700
   54        0.0000000000
   55        0.6617821000
   56       -0.2177552200
   57       -0.0000000000
   58       -0.0000000000
   59       -0.0000000000
   60        0.0050954500
   61       -0.0016766200
   62        0.0000000000
   63       -0.0000000000
   64       -0.0000000000
   65       -0.0000000000
   66       -0.0408112300
   67        0.0134286800
   68       -0.0000000000
 Ene=          0.01894660
 Spin= Alpha
 Occup=        0.00000000
    1       -0.1200289100
    2       13.0816402200
    3       -2.6394047900
    4        1.7012304200
    5       -0.5994179000
    6        0.0602149000
    7       -0.0549457700
    8        0.0289466200
    9       -0.0005780100
   10        0.0003421200
   11       -0.0426533500
   12       -0.0000000000
   13       -0.0000000000
   14        7.0647500600
   15       -0.0000000000
   16       -0.0000000000
   17       -1.6173585700
   18       -0.0000000000
   19       -0.0000000000
   20        0.6847503800
   21        0.0000000000
   22        0.0000000000
   23       -0.0255413900
   24       -0.0292110500
   25       -0.0292110500
   26       -0.0000000000
   27       -0.0000000000
   28       -0.0000000000
   29        1.9246438400
   30        0.0689136200
   31        0.0689136200
   32       -0.0000000000
   33       -0.0000000000
   34        0.0000000000
   35        0.1200289100
   36      -13.0816402200
   37        2.6394047900
   38       -1.7012304200
   39        0.5994179000
   40       -0.0602149000
   41        0.0549457700
   42       -0.0289466200
   43        0.0005780100
   44       -0.0003421200
   45       -0.0426533500
   46        0.0000000000
   47        0.0000000000
   48        7.0647500600
   49        0.0000000000
   50        0.0000000000
   51       -1.6173585700
   52       -0.0000000000
   53        0.0000000000
   54        0.6847503800
   55        0.0000000000
   56       -0.0000000000
   57        0.0255413900
   58        0.0292110500
   59        0.0292110500
   60       -0.0000000000
   61       -0.0000000000
   62        0.0000000000
   63       -1.9246438400
   64       -0.0689136200
   65       -0.0689136200
   66       -0.0000000000
   67       -0.0000000000
   68       -0.0000000000
 Ene=          0.01986380
 Spin= Alpha
 Occup=        0.00000000
    1        0.0000000000
    2       -0.0000000000
    3       -0.0000000000
    4        0.0000000000
    5       -0.0000000000
    6        0.0000000000
    7       -0.0000000000
    8        0.0000000000
    9       -0.0000000000
   10        0.0000000000
   11        0.0000000000
   12        0.0657324300
   13        0.0344742800
   14       -0.0000000000
   15       -0.1830520600
   16       -0.0960041800
   17       -0.0000000000
   18        0.7926821000
   19        0.4157330700
   20        0.0000000000
   21       -0.8749034800
   22       -0.4588552000
   23        0.0000000000
   24       -0.0000000000
   25       -0.0000000000
   26       -0.0638286500
   27       -0.0334758200
   28        0.0000000000
   29       -0.0000000000
   30       -0.0000000000
   31       -0.0000000000
   32        0.1113389200
   33        0.0583932300
   34       -0.0000000000
   35       -0.0000000000
   36        0.0000000000
   37        0.0000000000
   38       -0.0000000000
   39        0.0000000000
   40       -0.0000000000
   41        0.0000000000
   42       -0.0000000000
   43        0.0000000000
   44       -0.0000000000
   45       -0.0000000000
   46        0.0657324300
   47        0.0344742800
   48       -0.0000000000
   49       -0.1830520600
   50       -0.0960041800
   51       -0.0000000000
   52        0.7926821000
   53        0.4157330700
   54        0.0000000000
   55       -0.8749034800
   56       -0.4588552000
   57        0.0000000000
   58        0.0000000000
   59        0.0000000000
   60        0.0638286500
   61        0.0334758200
   62       -0.0000000000
   63        0.0000000000
   64        0.0000000000
   65        0.0000000000
   66       -0.1113389200
   67       -0.0583932300
   68        0.0000000000
 Ene=          0.01986380
 Spin= Alpha
 Occup=        0.00000000
    1        0.0000000000
    2       -0.0000000000
    3       -0.0000000000
    4        0.0000000000
    5       -0.0000000000
    6        0.0000000000
    7       -0.0000000000
    8        0.0000000000
    9        0.0000000000
   10       -0.0000000000
   11       -0.0000000000
   12        0.0344742800
   13       -0.0657324300
   14       -0.0000000000
   15       -0.0960041800
   16        0.1830520600
   17       -0.0000000000
   18        0.4157330700
   19       -0.7926821000
   20        0.0000000000
   21       -0.4588552000
   22        0.8749034800
   23       -0.0000000000
   24       -0.0000000000
   25       -0.0000000000
   26       -0.0334758200
   27        0.0638286500
   28       -0.0000000000
   29       -0.0000000000
   30       -0.0000000000
   31       -0.0000000000
   32        0.0583932300
   33       -0.1113389200
   34        0.0000000000
   35       -0.0000000000
   36        0.0000000000
   37        0.0000000000
   38       -0.0000000000
   39        0.0000000000
   40       -0.0000000000
   41        0.0000000000
   42       -0.0000000000
   43        0.0000000000
   44       -0.0000000000
   45       -0.0000000000
   46        0.0344742800
   47       -0.0657324300
   48       -0.0000000000
   49       -0.0960041800
   50        0.1830520600
   51       -0.0000000000
   52        0.4157330700
   53       -0.7926821000
   54        0.0000000000
   55       -0.4588552000
   56        0.8749034800
   57        0.0000000000
   58        0.0000000000
   59        0.0000000000
   60        0.0334758200
   61       -0.0638286500
   62        0.0000000000
   63        0.0000000000
   64        0.0000000000
   65        0.0000000000
   66       -0.0583932300
   67        0.1113389200
   68       -0.0000000000
 Ene=          0.02394660
 Spin= Alpha
 Occup=        0.00000000
    1       -0.4658376800
    2       -0.0605796500
    3        0.1409551000
    4       -0.9387624500
    5        0.6345789200
    6        0.0214976100
    7        0.0673031000
    8       -0.0447944100
    9       -0.0015694700
   10       -0.0001820400
   11        0.5366988800
   12        0.0000000000
   13        0.0000000000
   14       -0.1688924700
   15       -0.0000000000
   16       -0.0000000000
   17        0.2192725700
   18       -0.0000000000
   19       -0.0000000000
   20        0.2941163100
   21        0.0000000000
   22        0.0000000000
   23        0.2740726500
   24        0.0282121500
   25        0.0282121500
   26        0.0000000000
   27        0.0000000000
   28       -0.0000000000
   29        0.0326142400
   30        0.0704936600
   31        0.0704936600
   32       -0.0000000000
   33       -0.0000000000
   34        0.0000000000
   35       -0.4658376800
   36       -0.0605796500
   37        0.1409551000
   38       -0.9387624500
   39        0.6345789200
   40        0.0214976100
   41        0.0673031000
   42       -0.0447944100
   43       -0.0015694700
   44       -0.0001820400
   45       -0.5366988800
   46       -0.0000000000
   47       -0.0000000000
   48        0.1688924700
   49        0.0000000000
   50        0.0000000000
   51       -0.2192725700
   52        0.0000000000
   53        0.0000000000
   54       -0.2941163100
   55       -0.0000000000
   56       -0.0000000000
   57        0.2740726500
   58        0.0282121500
   59        0.0282121500
   60        0.0000000000
   61        0.0000000000
   62        0.0000000000
   63        0.0326142400
   64        0.0704936600
   65        0.0704936600
   66       -0.0000000000
   67       -0.0000000000
   68        0.0000000000
 Ene=          0.02572690
 Spin= Alpha
 Occup=        0.00000000
    1        0.0280937700
    2       -3.2553605200
    3        1.2285332600
    4       -1.6109681600
    5        0.8072891400
    6        0.0059444100
    7        0.0766458500
    8       -0.0491795100
    9       -0.0013701700
   10       -0.0002507700
   11        0.0203385400
   12       -0.0000000000
   13        0.0000000000
   14       -1.7946649000
   15        0.0000000000
   16       -0.0000000000
   17        0.7447179700
   18       -0.0000000000
   19        0.0000000000
   20        0.3027180000
   21        0.0000000000
   22       -0.0000000000
   23        0.0035442200
   24        0.0220618400
   25        0.0220618400
   26       -0.0000000000
   27        0.0000000000
   28        0.0000000000
   29       -0.4723348200
   30       -0.0337957300
   31       -0.0337957300
   32        0.0000000000
   33       -0.0000000000
   34       -0.0000000000
   35       -0.0280937700
   36        3.2553605200
   37       -1.2285332600
   38        1.6109681600
   39       -0.8072891400
   40       -0.0059444100
   41       -0.0766458500
   42        0.0491795100
   43        0.0013701700
   44        0.0002507700
   45        0.0203385400
   46        0.0000000000
   47       -0.0000000000
   48       -1.7946649000
   49       -0.0000000000
   50        0.0000000000
   51        0.7447179700
   52        0.0000000000
   53       -0.0000000000
   54        0.3027180000
   55       -0.0000000000
   56        0.0000000000
   57       -0.0035442200
   58       -0.0220618400
   59       -0.0220618400
   60       -0.0000000000
   61        0.0000000000
   62       -0.0000000000
   63        0.4723348200
   64        0.0337957300
   65        0.0337957300
   66        0.0000000000
   67       -0.0000000000
   68        0.0000000000
 Ene=          0.02577600
 Spin= Alpha
 Occup=        0.00000000
    1        0.0000000000
    2        0.0000000000
    3        0.0000000000
    4       -0.0000000000
    5        0.0000000000
    6        0.0000000000
    7        0.0000000000
    8       -0.0000000000
    9       -0.0000000000
   10       -0.0000000000
   11       -0.0000000000
   12        0.5411734000
   13       -2.3017518900
   14        0.0000000000
   15       -0.1460609000
   16        0.6212351800
   17        0.0000000000
   18        0.3366352900
   19       -1.4317978800
   20        0.0000000000
   21       -0.1897290600
   22        0.8069672800
   23       -0.0000000000
   24        0.0000000000
   25        0.0000000000
   26        0.1336327200
   27       -0.5683748900
   28       -0.0000000000
   29        0.0000000000
   30        0.0000000000
   31        0.0000000000
   32       -0.0109499000
   33        0.0465727800
   34        0.0000000000
   35        0.0000000000
   36       -0.0000000000
   37       -0.0000000000
   38        0.0000000000
   39       -0.0000000000
   40       -0.0000000000
   41       -0.0000000000
   42        0.0000000000
   43        0.0000000000
   44        0.0000000000
   45        0.0000000000
   46       -0.5411734000
   47        2.3017518900
   48        0.0000000000
   49        0.1460609000
   50       -0.6212351800
   51        0.0000000000
   52       -0.3366352900
   53        1.4317978800
   54        0.0000000000
   55        0.1897290600
   56       -0.8069672800
   57       -0.0000000000
   58       -0.0000000000
   59       -0.0000000000
   60        0.1336327200
   61       -0.5683748900
   62        0.0000000000
   63       -0.0000000000
   64       -0.0000000000
   65       -0.0000000000
   66       -0.0109499000
   67        0.0465727800
   68       -0.0000000000
 Ene=          0.02577600
 Spin= Alpha
 Occup=        0.00000000
    1       -0.0000000000
    2        0.0000000000
    3       -0.0000000000
    4        0.0000000000
    5       -0.0000000000
    6       -0.0000000000
    7       -0.0000000000
    8        0.0000000000
    9        0.0000000000
   10       -0.0000000000
   11       -0.0000000000
   12       -2.3017518900
   13       -0.5411734000
   14        0.0000000000
   15        0.6212351800
   16        0.1460609000