[Molden Format]
[Title]
 Molden2AIM, Version 3.1.0 (02/25/2015)           Time: Thu Oct 17 19:54:36 2024

[Atoms] AU
E+       1       4     0.00000000     0.00000000     0.00000000
E+       2       4    35.00000000     0.00000000     0.00000000
[GTO]
    1 0
 S   1 1.0
    0.1000000000D-03      0.1000000000D+01
 S   1 1.0
    0.3000000000D-03      0.1000000000D+01
 S   1 1.0
    0.9000000000D-03      0.1000000000D+01
 S   1 1.0
    0.2700000000D-02      0.1000000000D+01
 S   1 1.0
    0.8100000000D-02      0.1000000000D+01
 S   1 1.0
    0.2430000000D-01      0.1000000000D+01
 S   1 1.0
    0.7290000000D-01      0.1000000000D+01
 S   1 1.0
    0.2187000000D+00      0.1000000000D+01
 S   1 1.0
    0.6561000000D+00      0.1000000000D+01
 S   1 1.0
    0.1968300000D+01      0.1000000000D+01
 P   1 1.0
    0.1000000000D-03      0.1000000000D+01
 P   1 1.0
    0.3000000000D-03      0.1000000000D+01
 P   1 1.0
    0.9000000000D-03      0.1000000000D+01
 P   1 1.0
    0.2700000000D-02      0.1000000000D+01
 D   1 1.0
    0.1000000000D-03      0.1000000000D+01
 D   1 1.0
    0.3000000000D-03      0.1000000000D+01

    2 0
 S   1 1.0
    0.1000000000D-03      0.1000000000D+01
 S   1 1.0
    0.3000000000D-03      0.1000000000D+01
 S   1 1.0
    0.9000000000D-03      0.1000000000D+01
 S   1 1.0
    0.2700000000D-02      0.1000000000D+01
 S   1 1.0
    0.8100000000D-02      0.1000000000D+01
 S   1 1.0
    0.2430000000D-01      0.1000000000D+01
 S   1 1.0
    0.7290000000D-01      0.1000000000D+01
 S   1 1.0
    0.2187000000D+00      0.1000000000D+01
 S   1 1.0
    0.6561000000D+00      0.1000000000D+01
 S   1 1.0
    0.1968300000D+01      0.1000000000D+01
 P   1 1.0
    0.1000000000D-03      0.1000000000D+01
 P   1 1.0
    0.3000000000D-03      0.1000000000D+01
 P   1 1.0
    0.9000000000D-03      0.1000000000D+01
 P   1 1.0
    0.2700000000D-02      0.1000000000D+01
 D   1 1.0
    0.1000000000D-03      0.1000000000D+01
 D   1 1.0
    0.3000000000D-03      0.1000000000D+01


[MO]
 Ene=         -0.00382870
 Spin= Alpha
 Occup=        1.00000000
    1        0.0670056900
    2       -0.0577323400
    3       -0.0028639900
    4       -0.2202450000
    5       -0.2823906300
    6       -0.1921759200
    7       -0.1202744800
    8        0.0970668100
    9        0.0066063900
   10       -0.0000888800
   11       -0.2313085700
   12       -0.0000000000
   13       -0.0000000000
   14        0.0796365800
   15       -0.0000000000
   16        0.0000000000
   17       -0.0492994700
   18        0.0000000000
   19       -0.0000000000
   20        0.0051451600
   21       -0.0000000000
   22        0.0000000000
   23       -0.0697546100
   24        0.0021118800
   25        0.0021118800
   26       -0.0000000000
   27       -0.0000000000
   28       -0.0000000000
   29        0.0427828200
   30        0.0087572100
   31        0.0087572100
   32       -0.0000000000
   33        0.0000000000
   34        0.0000000000
   35        0.0670056900
   36       -0.0577323400
   37       -0.0028639900
   38       -0.2202450000
   39       -0.2823906300
   40       -0.1921759200
   41       -0.1202744800
   42        0.0970668100
   43        0.0066063900
   44       -0.0000888800
   45        0.2313085700
   46        0.0000000000
   47        0.0000000000
   48       -0.0796365800
   49        0.0000000000
   50       -0.0000000000
   51        0.0492994700
   52        0.0000000000
   53        0.0000000000
   54       -0.0051451600
   55       -0.0000000000
   56       -0.0000000000
   57       -0.0697546100
   58        0.0021118800
   59        0.0021118800
   60       -0.0000000000
   61        0.0000000000
   62        0.0000000000
   63        0.0427828200
   64        0.0087572100
   65        0.0087572100
   66       -0.0000000000
   67        0.0000000000
   68       -0.0000000000
 Ene=         -0.00337931
 Spin= Alpha
 Occup=        0.00000000
    1        0.0018381300
    2        0.0073038000
    3        0.0293176300
    4        0.2911382900
    5        0.2767020500
    6        0.2112225800
    7        0.1230689400
    8       -0.1008723100
    9       -0.0071568400
   10        0.0001336600
   11       -0.0090175600
   12        0.0000000000
   13        0.0000000000
   14       -0.0174099800
   15       -0.0000000000
   16       -0.0000000000
   17        0.0616115100
   18       -0.0000000000
   19        0.0000000000
   20        0.0144544900
   21        0.0000000000
   22       -0.0000000000
   23       -0.0138284000
   24       -0.0063653800
   25       -0.0063653800
   26        0.0000000000
   27        0.0000000000
   28        0.0000000000
   29       -0.0236962100
   30       -0.0310076100
   31       -0.0310076100
   32       -0.0000000000
   33       -0.0000000000
   34       -0.0000000000
   35       -0.0018381300
   36       -0.0073038000
   37       -0.0293176300
   38       -0.2911382900
   39       -0.2767020500
   40       -0.2112225800
   41       -0.1230689400
   42        0.1008723100
   43        0.0071568400
   44       -0.0001336600
   45       -0.0090175600
   46       -0.0000000000
   47       -0.0000000000
   48       -0.0174099800
   49        0.0000000000
   50        0.0000000000
   51        0.0616115100
   52       -0.0000000000
   53        0.0000000000
   54        0.0144544900
   55        0.0000000000
   56        0.0000000000
   57        0.0138284000
   58        0.0063653800
   59        0.0063653800
   60        0.0000000000
   61        0.0000000000
   62       -0.0000000000
   63        0.0236962100
   64        0.0310076100
   65        0.0310076100
   66       -0.0000000000
   67       -0.0000000000
   68        0.0000000000
 Ene=          0.00414268
 Spin= Alpha
 Occup=        0.00000000
    1        0.7116076500
    2        0.0392876300
    3       -1.0534315300
    4        0.7277396600
    5        0.0468159600
    6        0.1116003500
    7        0.0362950200
    8       -0.0346683200
    9       -0.0033461700
   10        0.0001688100
   11       -1.5448796000
   12       -0.0000000000
   13       -0.0000000000
   14        0.4846344400
   15        0.0000000000
   16       -0.0000000000
   17       -0.4850166400
   18       -0.0000000000
   19        0.0000000000
   20        0.0491676000
   21        0.0000000000
   22        0.0000000000
   23       -0.4988164000
   24       -0.0246124600
   25       -0.0246124600
   26       -0.0000000000
   27       -0.0000000000
   28        0.0000000000
   29        0.0957802000
   30       -0.0857222900
   31       -0.0857222900
   32       -0.0000000000
   33       -0.0000000000
   34       -0.0000000000
   35        0.7116076500
   36        0.0392876300
   37       -1.0534315300
   38        0.7277396600
   39        0.0468159600
   40        0.1116003500
   41        0.0362950200
   42       -0.0346683200
   43       -0.0033461700
   44        0.0001688100
   45        1.5448796000
   46        0.0000000000
   47        0.0000000000
   48       -0.4846344400
   49       -0.0000000000
   50        0.0000000000
   51        0.4850166400
   52        0.0000000000
   53        0.0000000000
   54       -0.0491676000
   55       -0.0000000000
   56       -0.0000000000
   57       -0.4988164000
   58       -0.0246124600
   59       -0.0246124600
   60        0.0000000000
   61       -0.0000000000
   62       -0.0000000000
   63        0.0957802000
   64       -0.0857222900
   65       -0.0857222900
   66        0.0000000000
   67       -0.0000000000
   68        0.0000000000
 Ene=          0.00564615
 Spin= Alpha
 Occup=        0.00000000
    1       -0.0000000000
    2        0.0000000000
    3        0.0000000000
    4        0.0000000000
    5       -0.0000000000
    6       -0.0000000000
    7       -0.0000000000
    8        0.0000000000
    9       -0.0000000000
   10        0.0000000000
   11        0.0000000000
   12        0.0267660800
   13        0.0012397200
   14       -0.0000000000
   15       -0.0858469300
   16       -0.0039761500
   17        0.0000000000
   18        0.3063950900
   19        0.0141912400
   20       -0.0000000000
   21        0.3861846800
   22        0.0178868400
   23        0.0000000000
   24        0.0000000000
   25        0.0000000000
   26       -0.0038690400
   27       -0.0001792000
   28       -0.0000000000
   29       -0.0000000000
   30        0.0000000000
   31       -0.0000000000
   32        0.0296668700
   33        0.0013740700
   34       -0.0000000000
   35       -0.0000000000
   36        0.0000000000
   37       -0.0000000000
   38        0.0000000000
   39        0.0000000000
   40        0.0000000000
   41       -0.0000000000
   42       -0.0000000000
   43        0.0000000000
   44       -0.0000000000
   45       -0.0000000000
   46        0.0267660800
   47        0.0012397200
   48        0.0000000000
   49       -0.0858469300
   50       -0.0039761500
   51        0.0000000000
   52        0.3063950900
   53        0.0141912400
   54        0.0000000000
   55        0.3861846800
   56        0.0178868400
   57        0.0000000000
   58       -0.0000000000
   59       -0.0000000000
   60        0.0038690400
   61        0.0001792000
   62        0.0000000000
   63       -0.0000000000
   64       -0.0000000000
   65       -0.0000000000
   66       -0.0296668700
   67       -0.0013740700
   68        0.0000000000
 Ene=          0.00564615
 Spin= Alpha
 Occup=        0.00000000
    1        0.0000000000
    2        0.0000000000
    3       -0.0000000000
    4       -0.0000000000
    5       -0.0000000000
    6        0.0000000000
    7       -0.0000000000
    8       -0.0000000000
    9        0.0000000000
   10       -0.0000000000
   11       -0.0000000000
   12       -0.0012397200
   13        0.0267660800
   14       -0.0000000000
   15        0.0039761500
   16       -0.0858469300
   17       -0.0000000000
   18       -0.0141912400
   19        0.3063950900
   20       -0.0000000000
   21       -0.0178868400
   22        0.3861846800
   23       -0.0000000000
   24       -0.0000000000
   25       -0.0000000000
   26        0.0001792000
   27       -0.0038690400
   28        0.0000000000
   29       -0.0000000000
   30       -0.0000000000
   31       -0.0000000000
   32       -0.0013740700
   33        0.0296668700
   34       -0.0000000000
   35        0.0000000000
   36        0.0000000000
   37        0.0000000000
   38       -0.0000000000
   39        0.0000000000
   40       -0.0000000000
   41       -0.0000000000
   42       -0.0000000000
   43        0.0000000000
   44       -0.0000000000
   45        0.0000000000
   46       -0.0012397200
   47        0.0267660800
   48        0.0000000000
   49        0.0039761500
   50       -0.0858469300
   51       -0.0000000000
   52       -0.0141912400
   53        0.3063950900
   54       -0.0000000000
   55       -0.0178868400
   56        0.3861846800
   57       -0.0000000000
   58        0.0000000000
   59        0.0000000000
   60       -0.0001792000
   61        0.0038690400
   62       -0.0000000000
   63        0.0000000000
   64        0.0000000000
   65        0.0000000000
   66        0.0013740700
   67       -0.0296668700
   68        0.0000000000
 Ene=          0.00808625
 Spin= Alpha
 Occup=        0.00000000
    1       -0.0000000000
    2        0.0000000000
    3       -0.0000000000
    4        0.0000000000
    5        0.0000000000
    6        0.0000000000
    7        0.0000000000
    8       -0.0000000000
    9       -0.0000000000
   10       -0.0000000000
   11       -0.0000000000
   12       -0.5335891800
   13        0.4129222900
   14        0.0000000000
   15        0.0696839600
   16       -0.0539255000
   17       -0.0000000000
   18       -0.1003158200
   19        0.0776302100
   20       -0.0000000000
   21       -0.5762504900
   22        0.4459361000
   23       -0.0000000000
   24        0.0000000000
   25        0.0000000000
   26       -0.0910698000
   27        0.0704751000
   28        0.0000000000
   29        0.0000000000
   30        0.0000000000
   31        0.0000000000
   32        0.0063589400
   33       -0.0049209200
   34       -0.0000000000
   35        0.0000000000
   36       -0.0000000000
   37        0.0000000000
   38       -0.0000000000
   39       -0.0000000000
   40       -0.0000000000
   41       -0.0000000000
   42        0.0000000000
   43        0.0000000000
   44        0.0000000000
   45       -0.0000000000
   46        0.5335891800
   47       -0.4129222900
   48        0.0000000000
   49       -0.0696839600
   50        0.0539255000
   51       -0.0000000000
   52        0.1003158200
   53       -0.0776302100
   54       -0.0000000000
   55        0.5762504900
   56       -0.4459361000
   57        0.0000000000
   58       -0.0000000000
   59       -0.0000000000
   60       -0.0910698000
   61        0.0704751000
   62       -0.0000000000
   63       -0.0000000000
   64       -0.0000000000
   65       -0.0000000000
   66        0.0063589400
   67       -0.0049209200
   68        0.0000000000
 Ene=          0.00808625
 Spin= Alpha
 Occup=        0.00000000
    1       -0.0000000000
    2        0.0000000000
    3        0.0000000000
    4        0.0000000000
    5       -0.0000000000
    6       -0.0000000000
    7       -0.0000000000
    8        0.0000000000
    9       -0.0000000000
   10        0.0000000000
   11       -0.0000000000
   12        0.4129222900
   13        0.5335891800
   14        0.0000000000
   15       -0.0539255000
   16       -0.0696839600
   17        0.0000000000
   18        0.0776302100
   19        0.1003158200
   20        0.0000000000
   21        0.4459361000
   22        0.5762504900
   23       -0.0000000000
   24        0.0000000000
   25        0.0000000000
   26        0.0704751000
   27        0.0910698000
   28        0.0000000000
   29        0.0000000000
   30        0.0000000000
   31        0.0000000000
   32       -0.0049209200
   33       -0.0063589400
   34       -0.0000000000
   35        0.0000000000
   36       -0.0000000000
   37       -0.0000000000
   38        0.0000000000
   39       -0.0000000000
   40        0.0000000000
   41       -0.0000000000
   42        0.0000000000
   43        0.0000000000
   44       -0.0000000000
   45        0.0000000000
   46       -0.4129222900
   47       -0.5335891800
   48        0.0000000000
   49        0.0539255000
   50        0.0696839600
   51        0.0000000000
   52       -0.0776302100
   53       -0.1003158200
   54       -0.0000000000
   55       -0.4459361000
   56       -0.5762504900
   57       -0.0000000000
   58       -0.0000000000
   59       -0.0000000000
   60        0.0704751000
   61        0.0910698000
   62       -0.0000000000
   63       -0.0000000000
   64       -0.0000000000
   65       -0.0000000000
   66       -0.0049209200
   67       -0.0063589400
   68        0.0000000000
 Ene=          0.00893669
 Spin= Alpha
 Occup=        0.00000000
    1        0.0252236700
    2       -0.0072704700
    3       -2.9742404200
    4       -0.1660552300
    5        0.5588723900
    6        0.0178558700
    7        0.0805468800
    8       -0.0529723500
    9       -0.0016411800
   10       -0.0002409300
   11       -0.1314381200
   12       -0.0000000000
   13        0.0000000000
   14        0.0314647200
   15        0.0000000000
   16       -0.0000000000
   17       -1.1299598600
   18       -0.0000000000
   19        0.0000000000
   20       -0.2642102300
   21        0.0000000000
   22       -0.0000000000
   23       -0.1005594500
   24       -0.1853489200
   25       -0.1853489200
   26       -0.0000000000
   27        0.0000000000
   28        0.0000000000
   29       -0.2605692200
   30       -0.1096438300
   31       -0.1096438300
   32        0.0000000000
   33       -0.0000000000
   34       -0.0000000000
   35       -0.0252236700
   36        0.0072704700
   37        2.9742404200
   38        0.1660552300
   39       -0.5588723900
   40       -0.0178558700
   41       -0.0805468800
   42        0.0529723500
   43        0.0016411800
   44        0.0002409300
   45       -0.1314381200
   46        0.0000000000
   47       -0.0000000000
   48        0.0314647200
   49       -0.0000000000
   50        0.0000000000
   51       -1.1299598600
   52        0.0000000000
   53       -0.0000000000
   54       -0.2642102300
   55       -0.0000000000
   56        0.0000000000
   57        0.1005594500
   58        0.1853489200
   59        0.1853489200
   60       -0.0000000000
   61        0.0000000000
   62        0.0000000000
   63        0.2605692200
   64        0.1096438300
   65        0.1096438300
   66        0.0000000000
   67       -0.0000000000
   68       -0.0000000000
 Ene=          0.00935943
 Spin= Alpha
 Occup=        0.00000000
    1        0.3415123800
    2       -0.2617979300
    3       -0.3666637900
    4        0.7054151800
    5       -0.3771590400
    6        0.0496258700
    7       -0.0437983700
    8        0.0227312300
    9       -0.0005679900
   10        0.0002845900
   11       -1.3515894500
   12       -0.0000000000
   13       -0.0000000000
   14        0.3763761800
   15        0.0000000000
   16        0.0000000000
   17       -0.4167340200
   18       -0.0000000000
   19       -0.0000000000
   20        0.7113030000
   21       -0.0000000000
   22       -0.0000000000
   23       -0.3977132200
   24        0.0196592900
   25        0.0196592900
   26       -0.0000000000
   27       -0.0000000000
   28       -0.0000000000
   29        0.2080508200
   30        0.0668055000
   31        0.0668055000
   32        0.0000000000
   33        0.0000000000
   34        0.0000000000
   35        0.3415123800
   36       -0.2617979300
   37       -0.3666637900
   38        0.7054151800
   39       -0.3771590400
   40        0.0496258700
   41       -0.0437983700
   42        0.0227312300
   43       -0.0005679900
   44        0.0002845900
   45        1.3515894500
   46        0.0000000000
   47        0.0000000000
   48       -0.3763761800
   49       -0.0000000000
   50       -0.0000000000
   51        0.4167340200
   52        0.0000000000
   53        0.0000000000
   54       -0.7113030000
   55        0.0000000000
   56        0.0000000000
   57       -0.3977132200
   58        0.0196592900
   59        0.0196592900
   60       -0.0000000000
   61       -0.0000000000
   62        0.0000000000
   63        0.2080508200
   64        0.0668055000
   65        0.0668055000
   66        0.0000000000
   67        0.0000000000
   68       -0.0000000000
 Ene=          0.01280280
 Spin= Alpha
 Occup=        0.00000000
    1        0.0000000000
    2       -0.0000000000
    3       -0.0000000000
    4        0.0000000000
    5       -0.0000000000
    6        0.0000000000
    7       -0.0000000000
    8        0.0000000000
    9        0.0000000000
   10       -0.0000000000
   11       -0.0000000000
   12        0.0096822900
   13        0.0660522700
   14        0.0000000000
   15       -0.0325016000
   16       -0.2217248400
   17       -0.0000000000
   18        0.1399333900
   19        0.9546208000
   20       -0.0000000000
   21       -0.1354142200
   22       -0.9237912200
   23       -0.0000000000
   24        0.0000000000
   25        0.0000000000
   26       -0.0006237900
   27       -0.0042554600
   28       -0.0000000000
   29        0.0000000000
   30        0.0000000000
   31        0.0000000000
   32        0.0096872400
   33        0.0660860100
   34        0.0000000000
   35        0.0000000000
   36       -0.0000000000
   37       -0.0000000000
   38        0.0000000000
   39       -0.0000000000
   40        0.0000000000
   41       -0.0000000000
   42        0.0000000000
   43        0.0000000000
   44        0.0000000000
   45        0.0000000000
   46        0.0096822900
   47        0.0660522700
   48       -0.0000000000
   49       -0.0325016000
   50       -0.2217248400
   51        0.0000000000
   52        0.1399333900
   53        0.9546208000
   54        0.0000000000
   55       -0.1354142200
   56       -0.9237912200
   57       -0.0000000000
   58        0.0000000000
   59        0.0000000000
   60        0.0006237900
   61        0.0042554600
   62        0.0000000000
   63        0.0000000000
   64        0.0000000000
   65        0.0000000000
   66       -0.0096872400
   67       -0.0660860100
   68        0.0000000000
 Ene=          0.01280280
 Spin= Alpha
 Occup=        0.00000000
    1       -0.0000000000
    2        0.0000000000
    3        0.0000000000
    4       -0.0000000000
    5        0.0000000000
    6       -0.0000000000
    7        0.0000000000
    8       -0.0000000000
    9        0.0000000000
   10       -0.0000000000
   11        0.0000000000
   12        0.0660522700
   13       -0.0096822900
   14       -0.0000000000
   15       -0.2217248400
   16        0.0325016000
   17        0.0000000000
   18        0.9546208000
   19       -0.1399333900
   20        0.0000000000
   21       -0.9237912200
   22        0.1354142200
   23        0.0000000000
   24       -0.0000000000
   25        0.0000000000
   26       -0.0042554600
   27        0.0006237900
   28        0.0000000000
   29       -0.0000000000
   30       -0.0000000000
   31       -0.0000000000
   32        0.0660860100
   33       -0.0096872400
   34       -0.0000000000
   35       -0.0000000000
   36        0.0000000000
   37       -0.0000000000
   38       -0.0000000000
   39        0.0000000000
   40        0.0000000000
   41        0.0000000000
   42       -0.0000000000
   43       -0.0000000000
   44        0.0000000000
   45       -0.0000000000
   46        0.0660522700
   47       -0.0096822900
   48        0.0000000000
   49       -0.2217248400
   50        0.0325016000
   51       -0.0000000000
   52        0.9546208000
   53       -0.1399333900
   54        0.0000000000
   55       -0.9237912200
   56        0.1354142200
   57        0.0000000000
   58       -0.0000000000
   59       -0.0000000000
   60        0.0042554600
   61       -0.0006237900
   62       -0.0000000000
   63       -0.0000000000
   64       -0.0000000000
   65       -0.0000000000
   66       -0.0660860100
   67        0.0096872400
   68        0.0000000000
 Ene=          0.01283310
 Spin= Alpha
 Occup=        0.00000000
    1        0.2838605700
    2       -0.2313497500
    3       -0.3149514600
    4        1.6262524000
    5       -0.9841778000
    6        0.0064473400
    7       -0.1115414800
    8        0.0701872500
    9        0.0015754900
   10        0.0004073100
   11       -1.3318506500
   12       -0.0000000000
   13       -0.0000000000
   14        0.2329899200
   15        0.0000000000
   16        0.0000000000
   17       -0.4301690600
   18       -0.0000000000
   19       -0.0000000000
   20       -0.0751449100
   21        0.0000000000
   22        0.0000000000
   23       -0.3809965700
   24        0.0260793400
   25        0.0260793400
   26       -0.0000000000
   27       -0.0000000000
   28       -0.0000000000
   29        0.1503043100
   30        0.0939915200
   31        0.0939915200
   32        0.0000000000
   33       -0.0000000000
   34        0.0000000000
   35        0.2838605700
   36       -0.2313497500
   37       -0.3149514600
   38        1.6262524000
   39       -0.9841778000
   40        0.0064473400
   41       -0.1115414800
   42        0.0701872500
   43        0.0015754900
   44        0.0004073100
   45        1.3318506500
   46        0.0000000000
   47        0.0000000000
   48       -0.2329899200
   49       -0.0000000000
   50        0.0000000000
   51        0.4301690600
   52       -0.0000000000
   53       -0.0000000000
   54        0.0751449100
   55        0.0000000000
   56        0.0000000000
   57       -0.3809965700
   58        0.0260793400
   59        0.0260793400
   60       -0.0000000000
   61       -0.0000000000
   62        0.0000000000
   63        0.1503043100
   64        0.0939915200
   65        0.0939915200
   66        0.0000000000
   67        0.0000000000
   68       -0.0000000000
 Ene=          0.01345350
 Spin= Alpha
 Occup=        0.00000000
    1       -0.0169729000
    2       -0.0185891800
    3        1.1611057700
    4       -0.0612161200
    5       -0.0043190000
    6        0.0763482600
    7        0.0072643300
    8       -0.0122562000
    9       -0.0019363700
   10        0.0001645500
   11        0.0865921000
   12        0.0000000000
   13       -0.0000000000
   14        0.0355120400
   15       -0.0000000000
   16       -0.0000000000
   17        0.2936833900
   18        0.0000000000
   19        0.0000000000
   20        1.1395315500
   21       -0.0000000000
   22       -0.0000000000
   23        0.0893620800
   24        0.1036062200
   25        0.1036062200
   26        0.0000000000
   27       -0.0000000000
   28        0.0000000000
   29        0.1850386700
   30        0.1418684300
   31        0.1418684300
   32       -0.0000000000
   33       -0.0000000000
   34       -0.0000000000
   35        0.0169729000
   36        0.0185891800
   37       -1.1611057700
   38        0.0612161200
   39        0.0043190000
   40       -0.0763482600
   41       -0.0072643300
   42        0.0122562000
   43        0.0019363700
   44       -0.0001645500
   45        0.0865921000
   46       -0.0000000000
   47        0.0000000000
   48        0.0355120400
   49        0.0000000000
   50        0.0000000000
   51        0.2936833900
   52       -0.0000000000
   53       -0.0000000000
   54        1.1395315500
   55        0.0000000000
   56       -0.0000000000
   57       -0.0893620800
   58       -0.1036062200
   59       -0.1036062200
   60        0.0000000000
   61       -0.0000000000
   62       -0.0000000000
   63       -0.1850386700
   64       -0.1418684300
   65       -0.1418684300
   66       -0.0000000000
   67       -0.0000000000
   68        0.0000000000
 Ene=          0.01778050
 Spin= Alpha
 Occup=        0.00000000
    1        0.0128726300
    2       -0.0459237900
    3       -4.9218862900
    4        2.9193724000
    5       -1.3040921900
    6        0.0847164100
    7       -0.1152049200
    8        0.0648394700
    9       -0.0000928800
   10        0.0005984900
   11       -0.0708737400
   12       -0.0000000000
   13        0.0000000000
   14        0.0846831900
   15        0.0000000000
   16       -0.0000000000
   17       -1.9716196800
   18       -0.0000000000
   19        0.0000000000
   20        0.3855352300
   21        0.0000000000
   22       -0.0000000000
   23       -0.0087986500
   24       -0.1329509900
   25       -0.1329509900
   26       -0.0000000000
   27        0.0000000000
   28        0.0000000000
   29       -0.1450226800
   30        0.0512304900
   31        0.0512304900
   32        0.0000000000
   33       -0.0000000000
   34       -0.0000000000
   35       -0.0128726300
   36        0.0459237900
   37        4.9218862900
   38       -2.9193724000
   39        1.3040921900
   40       -0.0847164100
   41        0.1152049200
   42       -0.0648394700
   43        0.0000928800
   44       -0.0005984900
   45       -0.0708737400
   46        0.0000000000
   47       -0.0000000000
   48        0.0846831900
   49       -0.0000000000
   50        0.0000000000
   51       -1.9716196800
   52        0.0000000000
   53       -0.0000000000
   54        0.3855352300
   55       -0.0000000000
   56        0.0000000000
   57        0.0087986500
   58        0.1329509900
   59        0.1329509900
   60       -0.0000000000
   61        0.0000000000
   62       -0.0000000000
   63        0.1450226800
   64       -0.0512304900
   65       -0.0512304900
   66        0.0000000000
   67       -0.0000000000
   68        0.0000000000
 Ene=          0.01898870
 Spin= Alpha
 Occup=        0.00000000
    1       -0.0000000000
    2       -0.0000000000
    3       -0.0000000000
    4        0.0000000000
    5       -0.0000000000
    6        0.0000000000
    7       -0.0000000000
    8        0.0000000000
    9       -0.0000000000
   10        0.0000000000
   11        0.0000000000
   12        8.3796201200
   13        2.4099710000
   14       -0.0000000000
   15       -1.8270064400
   16       -0.5254453600
   17       -0.0000000000
   18        1.7354959200
   19        0.4991270200
   20       -0.0000000000
   21       -0.8236254200
   22       -0.2368739100
   23        0.0000000000
   24       -0.0000000000
   25       -0.0000000000
   26        1.4498039600
   27        0.4169622800
   28       -0.0000000000
   29       -0.0000000000
   30       -0.0000000000
   31       -0.0000000000
   32       -0.3708923700
   33       -0.1066683000
   34        0.0000000000
   35       -0.0000000000
   36        0.0000000000
   37        0.0000000000
   38       -0.0000000000
   39        0.0000000000
   40        0.0000000000
   41        0.0000000000
   42       -0.0000000000
   43        0.0000000000
   44       -0.0000000000
   45       -0.0000000000
   46       -8.3796201200
   47       -2.4099710000
   48       -0.0000000000
   49        1.8270064400
   50        0.5254453600
   51       -0.0000000000
   52       -1.7354959200
   53       -0.4991270200
   54        0.0000000000
   55        0.8236254200
   56        0.2368739100
   57        0.0000000000
   58        0.0000000000
   59        0.0000000000
   60        1.4498039600
   61        0.4169622800
   62        0.0000000000
   63        0.0000000000
   64       -0.0000000000
   65       -0.0000000000
   66       -0.3708923700
   67       -0.1066683000
   68       -0.0000000000
 Ene=          0.01898870
 Spin= Alpha
 Occup=        0.00000000
    1       -0.0000000000
    2        0.0000000000
    3        0.0000000000
    4       -0.0000000000
    5        0.0000000000
    6       -0.0000000000
    7        0.0000000000
    8       -0.0000000000
    9        0.0000000000
   10       -0.0000000000
   11       -0.0000000000
   12       -2.4099710000
   13        8.3796201200
   14        0.0000000000
   15        0.5254453600
   16       -1.8270064400