 Molden2AIM, Version 3.1.0 (02/25/2015)           Time: Thu Oct 17 19:52:19 2024
GAUSSIAN             68 MOL ORBITALS     68 PRIMITIVES        2 NUCLEI
  Be   1    (CENTRE  1)   0.00000000  0.00000000  0.00000000  CHARGE =  4.0
  Be   2    (CENTRE  2)   5.80000000  0.00000000  0.00000000  CHARGE =  4.0
CENTRE ASSIGNMENTS    1  1  1  1  1  1  1  1  1  1  1  1  1  1  1  1  1  1  1  1
CENTRE ASSIGNMENTS    1  1  1  1  1  1  1  1  1  1  1  1  1  1  2  2  2  2  2  2
CENTRE ASSIGNMENTS    2  2  2  2  2  2  2  2  2  2  2  2  2  2  2  2  2  2  2  2
CENTRE ASSIGNMENTS    2  2  2  2  2  2  2  2
TYPE ASSIGNMENTS      1  1  1  1  1  1  1  1  1  1  2  3  4  2  3  4  2  3  4  2
TYPE ASSIGNMENTS      3  4  5  6  7  8  9 10  5  6  7  8  9 10  1  1  1  1  1  1
TYPE ASSIGNMENTS      1  1  1  1  2  3  4  2  3  4  2  3  4  2  3  4  5  6  7  8
TYPE ASSIGNMENTS      9 10  5  6  7  8  9 10
EXPONENTS  0.1000000D-03 0.3000000D-03 0.9000000D-03 0.2700000D-02 0.8100000D-02
EXPONENTS  0.2430000D-01 0.7290000D-01 0.2187000D+00 0.6561000D+00 0.1968300D+01
EXPONENTS  0.1000000D-03 0.1000000D-03 0.1000000D-03 0.3000000D-03 0.3000000D-03
EXPONENTS  0.3000000D-03 0.9000000D-03 0.9000000D-03 0.9000000D-03 0.2700000D-02
EXPONENTS  0.2700000D-02 0.2700000D-02 0.1000000D-03 0.1000000D-03 0.1000000D-03
EXPONENTS  0.1000000D-03 0.1000000D-03 0.1000000D-03 0.3000000D-03 0.3000000D-03
EXPONENTS  0.3000000D-03 0.3000000D-03 0.3000000D-03 0.3000000D-03 0.1000000D-03
EXPONENTS  0.3000000D-03 0.9000000D-03 0.2700000D-02 0.8100000D-02 0.2430000D-01
EXPONENTS  0.7290000D-01 0.2187000D+00 0.6561000D+00 0.1968300D+01 0.1000000D-03
EXPONENTS  0.1000000D-03 0.1000000D-03 0.3000000D-03 0.3000000D-03 0.3000000D-03
EXPONENTS  0.9000000D-03 0.9000000D-03 0.9000000D-03 0.2700000D-02 0.2700000D-02
EXPONENTS  0.2700000D-02 0.1000000D-03 0.1000000D-03 0.1000000D-03 0.1000000D-03
EXPONENTS  0.1000000D-03 0.1000000D-03 0.3000000D-03 0.3000000D-03 0.3000000D-03
EXPONENTS  0.3000000D-03 0.3000000D-03 0.3000000D-03
MO    1     MO 0.0        OCC NO =    1.0000000  ORB. ENERGY =   -0.019529
  0.26305104D-05  0.10635865D-04 -0.34057714D-04 -0.19654760D-03 -0.30439988D-02
 -0.11822214D-01 -0.24711877D-01  0.40357609D-01  0.49156515D-02  0.15523222D-03
  0.36271007D-08  0.00000000D+00 -0.00000000D+00  0.44390142D-07 -0.00000000D+00
  0.00000000D+00  0.75100079D-05 -0.00000000D+00  0.00000000D+00 -0.32106951D-04
  0.00000000D+00 -0.00000000D+00 -0.15430032D-09 -0.50990688D-10 -0.50990688D-10
 -0.00000000D+00  0.00000000D+00  0.00000000D+00 -0.10352860D-08 -0.31469412D-08
 -0.31469412D-08  0.00000000D+00 -0.00000000D+00  0.00000000D+00  0.26305104D-05
  0.10635865D-04 -0.34057714D-04 -0.19654760D-03 -0.30439988D-02 -0.11822214D-01
 -0.24711877D-01  0.40357609D-01  0.49156515D-02  0.15523222D-03 -0.36271007D-08
 -0.00000000D+00 -0.00000000D+00 -0.44390142D-07  0.00000000D+00 -0.00000000D+00
 -0.75100079D-05  0.00000000D+00 -0.00000000D+00  0.32106951D-04 -0.00000000D+00
  0.00000000D+00 -0.15430032D-09 -0.50990688D-10 -0.50990688D-10  0.00000000D+00
 -0.00000000D+00 -0.00000000D+00 -0.10352860D-08 -0.31469412D-08 -0.31469412D-08
 -0.00000000D+00  0.00000000D+00 -0.00000000D+00
MO    2     MO 0.0        OCC NO =    0.0000000  ORB. ENERGY =    0.002154
 -0.97440066D-04 -0.51475791D-03  0.40885594D-02 -0.44574527D-02  0.21094924D-02
 -0.45892469D-02 -0.95509966D-03  0.36991763D-02  0.13986357D-02 -0.29434549D-03
 -0.12533895D-06  0.00000000D+00 -0.00000000D+00 -0.22397527D-05  0.00000000D+00
 -0.00000000D+00 -0.70128764D-05 -0.00000000D+00  0.00000000D+00  0.55260308D-04
  0.00000000D+00  0.00000000D+00  0.31676426D-08  0.30077428D-08  0.30077428D-08
 -0.00000000D+00 -0.00000000D+00 -0.00000000D+00  0.98279221D-07  0.10614839D-06
  0.10614839D-06  0.00000000D+00  0.00000000D+00  0.00000000D+00 -0.97440066D-04
 -0.51475791D-03  0.40885594D-02 -0.44574527D-02  0.21094924D-02 -0.45892469D-02
 -0.95509966D-03  0.36991763D-02  0.13986357D-02 -0.29434549D-03  0.12533895D-06
 -0.00000000D+00  0.00000000D+00  0.22397527D-05 -0.00000000D+00  0.00000000D+00
  0.70128764D-05  0.00000000D+00 -0.00000000D+00 -0.55260308D-04 -0.00000000D+00
 -0.00000000D+00  0.31676426D-08  0.30077428D-08  0.30077428D-08  0.00000000D+00
  0.00000000D+00  0.00000000D+00  0.98279221D-07  0.10614839D-06  0.10614839D-06
  0.00000000D+00 -0.00000000D+00 -0.00000000D+00
MO    3     MO 0.0        OCC NO =    0.0000000  ORB. ENERGY =    0.002901
  0.39162952D-05  0.17137242D-04  0.11651804D-02  0.45596442D-01 -0.67357369D-02
 -0.88356722D-03 -0.40367586D-02  0.54447338D-02  0.28082342D-04  0.22590214D-03
 -0.24343691D-05  0.00000000D+00  0.00000000D+00 -0.83037964D-05  0.00000000D+00
 -0.00000000D+00  0.17090074D-03  0.00000000D+00  0.00000000D+00  0.66555980D-03
  0.00000000D+00 -0.00000000D+00 -0.18311341D-06 -0.17895679D-06 -0.17895679D-06
  0.00000000D+00  0.00000000D+00  0.00000000D+00 -0.23836581D-05 -0.24139112D-05
 -0.24139112D-05  0.00000000D+00 -0.00000000D+00 -0.00000000D+00 -0.39162952D-05
 -0.17137242D-04 -0.11651804D-02 -0.45596442D-01  0.67357369D-02  0.88356722D-03
  0.40367586D-02 -0.54447338D-02 -0.28082342D-04 -0.22590214D-03 -0.24343691D-05
 -0.00000000D+00 -0.00000000D+00 -0.83037964D-05 -0.00000000D+00  0.00000000D+00
  0.17090074D-03  0.00000000D+00 -0.00000000D+00  0.66555980D-03 -0.00000000D+00
  0.00000000D+00  0.18311341D-06  0.17895679D-06  0.17895679D-06  0.00000000D+00
  0.00000000D+00 -0.00000000D+00  0.23836581D-05  0.24139112D-05  0.24139112D-05
  0.00000000D+00 -0.00000000D+00  0.00000000D+00
MO    4     MO 0.0        OCC NO =    0.0000000  ORB. ENERGY =    0.003432
  0.00000000D+00  0.00000000D+00  0.00000000D+00  0.00000000D+00 -0.00000000D+00
  0.00000000D+00 -0.00000000D+00 -0.00000000D+00 -0.00000000D+00  0.00000000D+00
  0.00000000D+00 -0.76496246D-07 -0.36933723D-06  0.00000000D+00  0.13485788D-05
  0.65111772D-05  0.00000000D+00 -0.25709164D-04 -0.12412839D-03  0.00000000D+00
 -0.17401024D-05 -0.84015130D-05 -0.00000000D+00 -0.00000000D+00 -0.00000000D+00
 -0.16811721D-07 -0.81169960D-07  0.00000000D+00 -0.00000000D+00 -0.00000000D+00
 -0.00000000D+00  0.68891091D-07  0.33261837D-06  0.00000000D+00 -0.00000000D+00
 -0.00000000D+00 -0.00000000D+00 -0.00000000D+00  0.00000000D+00 -0.00000000D+00
  0.00000000D+00 -0.00000000D+00  0.00000000D+00 -0.00000000D+00 -0.00000000D+00
 -0.76496246D-07 -0.36933723D-06 -0.00000000D+00  0.13485788D-05  0.65111772D-05
  0.00000000D+00 -0.25709164D-04 -0.12412839D-03  0.00000000D+00 -0.17401024D-05
 -0.84015130D-05  0.00000000D+00  0.00000000D+00  0.00000000D+00  0.16811721D-07
  0.81169960D-07 -0.00000000D+00  0.00000000D+00  0.00000000D+00  0.00000000D+00
 -0.68891091D-07 -0.33261837D-06 -0.00000000D+00
MO    5     MO 0.0        OCC NO =    0.0000000  ORB. ENERGY =    0.003432
  0.00000000D+00 -0.00000000D+00 -0.00000000D+00 -0.00000000D+00  0.00000000D+00
 -0.00000000D+00  0.00000000D+00 -0.00000000D+00  0.00000000D+00  0.00000000D+00
 -0.00000000D+00 -0.36933723D-06  0.76496246D-07  0.00000000D+00  0.65111772D-05
 -0.13485788D-05 -0.00000000D+00 -0.12412839D-03  0.25709164D-04 -0.00000000D+00
 -0.84015130D-05  0.17401024D-05 -0.00000000D+00 -0.00000000D+00 -0.00000000D+00
 -0.81169960D-07  0.16811721D-07  0.00000000D+00 -0.00000000D+00 -0.00000000D+00
 -0.00000000D+00  0.33261837D-06 -0.68891091D-07 -0.00000000D+00  0.00000000D+00
  0.00000000D+00  0.00000000D+00  0.00000000D+00 -0.00000000D+00  0.00000000D+00
 -0.00000000D+00 -0.00000000D+00  0.00000000D+00 -0.00000000D+00 -0.00000000D+00
 -0.36933723D-06  0.76496246D-07 -0.00000000D+00  0.65111772D-05 -0.13485788D-05
 -0.00000000D+00 -0.12412839D-03  0.25709164D-04 -0.00000000D+00 -0.84015130D-05
  0.17401024D-05  0.00000000D+00  0.00000000D+00  0.00000000D+00  0.81169960D-07
 -0.16811721D-07 -0.00000000D+00  0.00000000D+00  0.00000000D+00  0.00000000D+00
 -0.33261837D-06  0.68891091D-07  0.00000000D+00
MO    6     MO 0.0        OCC NO =    0.0000000  ORB. ENERGY =    0.006627
  0.00000000D+00  0.00000000D+00 -0.00000000D+00 -0.00000000D+00  0.00000000D+00
 -0.00000000D+00  0.00000000D+00  0.00000000D+00  0.00000000D+00  0.00000000D+00
  0.00000000D+00  0.86722002D-09 -0.95759107D-08  0.00000000D+00 -0.90546300D-08
  0.99979683D-07  0.00000000D+00  0.10496713D-03 -0.11590544D-02 -0.00000000D+00
  0.72068062D-04 -0.79578061D-03  0.00000000D+00  0.00000000D+00  0.00000000D+00
 -0.92216106D-09  0.10182566D-07  0.00000000D+00  0.00000000D+00  0.00000000D+00
  0.00000000D+00  0.18656830D-07 -0.20601012D-06 -0.00000000D+00  0.00000000D+00
  0.00000000D+00  0.00000000D+00  0.00000000D+00 -0.00000000D+00  0.00000000D+00
  0.00000000D+00 -0.00000000D+00 -0.00000000D+00 -0.00000000D+00 -0.00000000D+00
 -0.86722002D-09  0.95759107D-08 -0.00000000D+00  0.90546300D-08 -0.99979683D-07
 -0.00000000D+00 -0.10496713D-03  0.11590544D-02 -0.00000000D+00 -0.72068062D-04
  0.79578061D-03 -0.00000000D+00 -0.00000000D+00 -0.00000000D+00 -0.92216106D-09
  0.10182566D-07 -0.00000000D+00 -0.00000000D+00 -0.00000000D+00 -0.00000000D+00
  0.18656830D-07 -0.20601012D-06  0.00000000D+00
MO    7     MO 0.0        OCC NO =    0.0000000  ORB. ENERGY =    0.006627
  0.00000000D+00  0.00000000D+00 -0.00000000D+00 -0.00000000D+00  0.00000000D+00
 -0.00000000D+00  0.00000000D+00 -0.00000000D+00  0.00000000D+00 -0.00000000D+00
  0.00000000D+00 -0.95759107D-08 -0.86722002D-09  0.00000000D+00  0.99979683D-07
  0.90546300D-08  0.00000000D+00 -0.11590544D-02 -0.10496713D-03  0.00000000D+00
 -0.79578061D-03 -0.72068062D-04  0.00000000D+00  0.00000000D+00  0.00000000D+00
  0.10182566D-07  0.92216106D-09  0.00000000D+00  0.00000000D+00  0.00000000D+00
 -0.00000000D+00 -0.20601012D-06 -0.18656830D-07  0.00000000D+00  0.00000000D+00
  0.00000000D+00 -0.00000000D+00  0.00000000D+00 -0.00000000D+00  0.00000000D+00
  0.00000000D+00 -0.00000000D+00  0.00000000D+00 -0.00000000D+00  0.00000000D+00
  0.95759107D-08  0.86722002D-09 -0.00000000D+00 -0.99979683D-07 -0.90546300D-08
 -0.00000000D+00  0.11590544D-02  0.10496713D-03 -0.00000000D+00  0.79578061D-03
  0.72068062D-04 -0.00000000D+00 -0.00000000D+00 -0.00000000D+00  0.10182566D-07
  0.92216106D-09 -0.00000000D+00 -0.00000000D+00 -0.00000000D+00 -0.00000000D+00
 -0.20601012D-06 -0.18656830D-07 -0.00000000D+00
MO    8     MO 0.0        OCC NO =    0.0000000  ORB. ENERGY =    0.006666
 -0.19049443D-03 -0.89370933D-03  0.18566321D-02  0.41020051D-02  0.97593233D-04
 -0.15970378D-03 -0.28609684D-03  0.43045471D-03 -0.26102809D-04  0.28874353D-04
 -0.26224739D-06 -0.00000000D+00  0.00000000D+00 -0.37525681D-05  0.00000000D+00
 -0.00000000D+00 -0.97612114D-03 -0.00000000D+00 -0.00000000D+00 -0.74178401D-03
 -0.00000000D+00 -0.00000000D+00  0.11752748D-07  0.34174130D-08  0.34174130D-08
  0.00000000D+00  0.00000000D+00  0.00000000D+00  0.67060844D-07  0.24557810D-06
  0.24557810D-06 -0.00000000D+00 -0.00000000D+00 -0.00000000D+00 -0.19049443D-03
 -0.89370933D-03  0.18566322D-02  0.41020051D-02  0.97593233D-04 -0.15970378D-03
 -0.28609684D-03  0.43045471D-03 -0.26102809D-04  0.28874353D-04  0.26224739D-06
  0.00000000D+00 -0.00000000D+00  0.37525681D-05 -0.00000000D+00  0.00000000D+00
  0.97612114D-03  0.00000000D+00  0.00000000D+00  0.74178401D-03  0.00000000D+00
  0.00000000D+00  0.11752748D-07  0.34174130D-08  0.34174130D-08  0.00000000D+00
  0.00000000D+00 -0.00000000D+00  0.67060844D-07  0.24557810D-06  0.24557810D-06
 -0.00000000D+00 -0.00000000D+00  0.00000000D+00
MO    9     MO 0.0        OCC NO =    0.0000000  ORB. ENERGY =    0.007121
  0.36381690D-05  0.17185834D-04  0.19485625D-03  0.19084746D-01  0.30249900D-02
  0.93436948D-02  0.65186286D-02 -0.11518525D-01 -0.15568268D-02  0.43465495D-05
 -0.22615362D-05  0.00000000D+00  0.00000000D+00 -0.85286775D-05  0.00000000D+00
 -0.00000000D+00  0.17812746D-03 -0.00000000D+00 -0.00000000D+00 -0.30032382D-03
 -0.00000000D+00 -0.00000000D+00 -0.17002688D-06 -0.16578049D-06 -0.16578049D-06
  0.00000000D+00  0.00000000D+00  0.00000000D+00 -0.22634711D-05 -0.22945324D-05
 -0.22945324D-05  0.00000000D+00 -0.00000000D+00 -0.00000000D+00 -0.36381690D-05
 -0.17185834D-04 -0.19485625D-03 -0.19084746D-01 -0.30249900D-02 -0.93436948D-02
 -0.65186286D-02  0.11518525D-01  0.15568268D-02 -0.43465495D-05 -0.22615362D-05
 -0.00000000D+00 -0.00000000D+00 -0.85286775D-05 -0.00000000D+00  0.00000000D+00
  0.17812746D-03  0.00000000D+00  0.00000000D+00 -0.30032382D-03  0.00000000D+00
  0.00000000D+00  0.17002688D-06  0.16578049D-06  0.16578049D-06  0.00000000D+00
  0.00000000D+00 -0.00000000D+00  0.22634711D-05  0.22945324D-05  0.22945324D-05
  0.00000000D+00 -0.00000000D+00  0.00000000D+00
MO   10     MO 0.0        OCC NO =    0.0000000  ORB. ENERGY =    0.008800
 -0.00000000D+00 -0.00000000D+00 -0.00000000D+00 -0.00000000D+00  0.00000000D+00
 -0.00000000D+00  0.00000000D+00 -0.00000000D+00  0.00000000D+00 -0.00000000D+00
 -0.00000000D+00  0.12318601D-06  0.32644448D-06 -0.00000000D+00 -0.22093911D-05
 -0.58549098D-05 -0.00000000D+00  0.48954575D-04  0.12973016D-03 -0.00000000D+00
 -0.23046018D-03 -0.61072202D-03 -0.00000000D+00 -0.00000000D+00  0.00000000D+00
  0.25482308D-07  0.67528393D-07 -0.00000000D+00 -0.00000000D+00 -0.00000000D+00
 -0.00000000D+00 -0.10184546D-06 -0.26989159D-06  0.00000000D+00  0.00000000D+00
 -0.00000000D+00  0.00000000D+00  0.00000000D+00 -0.00000000D+00  0.00000000D+00
  0.00000000D+00 -0.00000000D+00 -0.00000000D+00  0.00000000D+00  0.00000000D+00
  0.12318601D-06  0.32644448D-06 -0.00000000D+00 -0.22093911D-05 -0.58549098D-05
 -0.00000000D+00  0.48954575D-04  0.12973016D-03 -0.00000000D+00 -0.23046018D-03
 -0.61072202D-03  0.00000000D+00  0.00000000D+00 -0.00000000D+00 -0.25482308D-07
 -0.67528393D-07  0.00000000D+00  0.00000000D+00  0.00000000D+00  0.00000000D+00
  0.10184546D-06  0.26989159D-06 -0.00000000D+00
MO   11     MO 0.0        OCC NO =    0.0000000  ORB. ENERGY =    0.008800
 -0.00000000D+00  0.00000000D+00  0.00000000D+00  0.00000000D+00 -0.00000000D+00
  0.00000000D+00  0.00000000D+00 -0.00000000D+00 -0.00000000D+00  0.00000000D+00
 -0.00000000D+00  0.32644448D-06 -0.12318601D-06 -0.00000000D+00 -0.58549098D-05
  0.22093911D-05 -0.00000000D+00  0.12973016D-03 -0.48954575D-04  0.00000000D+00
 -0.61072202D-03  0.23046018D-03 -0.00000000D+00 -0.00000000D+00 -0.00000000D+00
  0.67528393D-07 -0.25482308D-07 -0.00000000D+00 -0.00000000D+00 -0.00000000D+00
 -0.00000000D+00 -0.26989159D-06  0.10184546D-06  0.00000000D+00 -0.00000000D+00
 -0.00000000D+00 -0.00000000D+00 -0.00000000D+00  0.00000000D+00 -0.00000000D+00
  0.00000000D+00 -0.00000000D+00  0.00000000D+00 -0.00000000D+00 -0.00000000D+00
  0.32644448D-06 -0.12318601D-06  0.00000000D+00 -0.58549098D-05  0.22093911D-05
  0.00000000D+00  0.12973016D-03 -0.48954575D-04  0.00000000D+00 -0.61072202D-03
  0.23046018D-03  0.00000000D+00  0.00000000D+00  0.00000000D+00 -0.67528393D-07
  0.25482308D-07  0.00000000D+00  0.00000000D+00  0.00000000D+00  0.00000000D+00
  0.26989159D-06 -0.10184546D-06 -0.00000000D+00
MO   12     MO 0.0        OCC NO =    0.0000000  ORB. ENERGY =    0.008893
  0.59547255D-04 -0.25398756D-03  0.33430774D-02 -0.12566019D-01  0.13140146D-01
 -0.18816730D-02  0.12090061D-01 -0.14713890D-01  0.11595072D-03 -0.70804935D-03
  0.76177667D-07 -0.00000000D+00 -0.00000000D+00 -0.80447030D-06  0.00000000D+00
 -0.00000000D+00 -0.16597930D-03 -0.00000000D+00 -0.00000000D+00  0.32117341D-03
  0.00000000D+00  0.00000000D+00 -0.10946835D-08 -0.29258845D-08 -0.29258845D-08
 -0.00000000D+00 -0.00000000D+00  0.00000000D+00 -0.30636188D-07  0.50958168D-08
  0.50958168D-08  0.00000000D+00  0.00000000D+00 -0.00000000D+00  0.59547255D-04
 -0.25398756D-03  0.33430774D-02 -0.12566019D-01  0.13140146D-01 -0.18816730D-02
  0.12090061D-01 -0.14713890D-01  0.11595072D-03 -0.70804935D-03 -0.76177667D-07
  0.00000000D+00  0.00000000D+00  0.80447030D-06 -0.00000000D+00  0.00000000D+00
  0.16597930D-03 -0.00000000D+00 -0.00000000D+00 -0.32117341D-03 -0.00000000D+00
  0.00000000D+00 -0.10946835D-08 -0.29258845D-08 -0.29258845D-08  0.00000000D+00
  0.00000000D+00 -0.00000000D+00 -0.30636188D-07  0.50958168D-08  0.50958168D-08
 -0.00000000D+00 -0.00000000D+00  0.00000000D+00
MO   13     MO 0.0        OCC NO =    0.0000000  ORB. ENERGY =    0.013177
  0.41821343D-05  0.17510465D-04 -0.73383750D-01 -0.20682885D+01  0.15666081D-01
 -0.87764716D-02  0.66342338D-03  0.20699120D-02  0.15473916D-02 -0.40736762D-03
 -0.25548149D-05 -0.00000000D+00 -0.00000000D+00 -0.97608517D-05 -0.00000000D+00
  0.00000000D+00 -0.18523427D-03 -0.00000000D+00  0.00000000D+00 -0.33502179D-01
  0.00000000D+00 -0.00000000D+00 -0.22178409D-06 -0.17091652D-06 -0.17091652D-06
 -0.00000000D+00 -0.00000000D+00  0.00000000D+00 -0.24351234D-05 -0.28263539D-05
 -0.28263539D-05 -0.00000000D+00  0.00000000D+00 -0.00000000D+00 -0.41821343D-05
 -0.17510465D-04  0.73383750D-01  0.20682885D+01 -0.15666081D-01  0.87764716D-02
 -0.66342338D-03 -0.20699120D-02 -0.15473916D-02  0.40736762D-03 -0.25548148D-05
  0.00000000D+00  0.00000000D+00 -0.97608523D-05  0.00000000D+00 -0.00000000D+00
 -0.18523427D-03  0.00000000D+00 -0.00000000D+00 -0.33502179D-01 -0.00000000D+00
  0.00000000D+00  0.22178409D-06  0.17091652D-06  0.17091652D-06 -0.00000000D+00
 -0.00000000D+00 -0.00000000D+00  0.24351234D-05  0.28263539D-05  0.28263539D-05
 -0.00000000D+00  0.00000000D+00  0.00000000D+00
MO   14     MO 0.0        OCC NO =    0.0000000  ORB. ENERGY =    0.014497
  0.00000000D+00  0.00000000D+00  0.00000000D+00  0.00000000D+00 -0.00000000D+00
  0.00000000D+00  0.00000000D+00 -0.00000000D+00 -0.00000000D+00  0.00000000D+00
 -0.00000000D+00 -0.14825699D-08  0.71594115D-08 -0.00000000D+00  0.47611517D-08
 -0.22990847D-07  0.00000000D+00 -0.29494951D-03  0.14243577D-02  0.00000000D+00
  0.75721831D-03 -0.36567267D-02  0.00000000D+00 -0.00000000D+00 -0.00000000D+00
  0.20815219D-08 -0.10052004D-07  0.00000000D+00  0.00000000D+00  0.00000000D+00
  0.00000000D+00 -0.43038877D-07  0.20784153D-06 -0.00000000D+00  0.00000000D+00
  0.00000000D+00 -0.00000000D+00 -0.00000000D+00  0.00000000D+00 -0.00000000D+00
  0.00000000D+00  0.00000000D+00  0.00000000D+00 -0.00000000D+00  0.00000000D+00
  0.14825699D-08 -0.71594115D-08  0.00000000D+00 -0.47611517D-08  0.22990847D-07
 -0.00000000D+00  0.29494951D-03 -0.14243577D-02  0.00000000D+00 -0.75721831D-03
  0.36567267D-02 -0.00000000D+00 -0.00000000D+00  0.00000000D+00  0.20815219D-08
 -0.10052004D-07 -0.00000000D+00 -0.00000000D+00 -0.00000000D+00 -0.00000000D+00
 -0.43038877D-07  0.20784153D-06  0.00000000D+00
MO   15     MO 0.0        OCC NO =    0.0000000  ORB. ENERGY =    0.014497
 -0.00000000D+00 -0.00000000D+00  0.00000000D+00  0.00000000D+00 -0.00000000D+00
  0.00000000D+00 -0.00000000D+00 -0.00000000D+00 -0.00000000D+00  0.00000000D+00
  0.00000000D+00 -0.71594115D-08 -0.14825699D-08  0.00000000D+00  0.22990847D-07
  0.47611517D-08 -0.00000000D+00 -0.14243577D-02 -0.29494951D-03  0.00000000D+00
  0.36567267D-02  0.75721831D-03  0.00000000D+00  0.00000000D+00  0.00000000D+00
  0.10052004D-07  0.20815219D-08 -0.00000000D+00  0.00000000D+00  0.00000000D+00
  0.00000000D+00 -0.20784153D-06 -0.43038877D-07  0.00000000D+00 -0.00000000D+00
 -0.00000000D+00 -0.00000000D+00 -0.00000000D+00  0.00000000D+00 -0.00000000D+00
 -0.00000000D+00  0.00000000D+00  0.00000000D+00 -0.00000000D+00  0.00000000D+00
  0.71594115D-08  0.14825699D-08  0.00000000D+00 -0.22990847D-07 -0.47611517D-08
  0.00000000D+00  0.14243577D-02  0.29494951D-03  0.00000000D+00 -0.36567267D-02
 -0.75721831D-03 -0.00000000D+00 -0.00000000D+00 -0.00000000D+00  0.10052004D-07
  0.20815219D-08  0.00000000D+00 -0.00000000D+00 -0.00000000D+00 -0.00000000D+00
 -0.20784153D-06 -0.43038877D-07 -0.00000000D+00
MO   16     MO 0.0        OCC NO =    0.0000000  ORB. ENERGY =    0.014857
 -0.36116395D-03 -0.14660090D-02  0.48817543D-02 -0.25017109D-03 -0.11905662D-01
  0.51614584D-02 -0.63238615D-02  0.56674144D-02 -0.94732831D-03  0.56764515D-03
 -0.47854409D-06 -0.00000000D+00  0.00000000D+00 -0.65205171D-05  0.00000000D+00
 -0.00000000D+00 -0.12017654D-02  0.00000000D+00  0.00000000D+00  0.30463578D-02
 -0.00000000D+00 -0.00000000D+00  0.17167649D-07  0.93390728D-08  0.93390728D-08
 -0.00000000D+00 -0.00000000D+00  0.00000000D+00  0.21062871D-06  0.39107282D-06
  0.39107282D-06  0.00000000D+00  0.00000000D+00 -0.00000000D+00 -0.36116395D-03
 -0.14660090D-02  0.48817543D-02 -0.25017134D-03 -0.11905662D-01  0.51614584D-02
 -0.63238615D-02  0.56674144D-02 -0.94732831D-03  0.56764515D-03  0.47854409D-06
  0.00000000D+00 -0.00000000D+00  0.65205171D-05 -0.00000000D+00  0.00000000D+00
  0.12017654D-02 -0.00000000D+00 -0.00000000D+00 -0.30463578D-02  0.00000000D+00
  0.00000000D+00  0.17167649D-07  0.93390728D-08  0.93390728D-08  0.00000000D+00
  0.00000000D+00 -0.00000000D+00  0.21062871D-06  0.39107282D-06  0.39107282D-06
 -0.00000000D+00 -0.00000000D+00  0.00000000D+00
MO   17     MO 0.0        OCC NO =    0.0000000  ORB. ENERGY =    0.018660
  0.33743468D-05  0.38109457D-05 -0.26517919D-01 -0.75039452D+00  0.59241430D-01
 -0.29550702D-03  0.18499264D-01 -0.23345994D-01  0.43972635D-03 -0.11638449D-02
 -0.20558427D-05 -0.00000000D+00 -0.00000000D+00 -0.88769647D-06 -0.00000000D+00
  0.00000000D+00 -0.16196488D-03  0.00000000D+00 -0.00000000D+00 -0.11308260D-01
 -0.00000000D+00  0.00000000D+00 -0.18472246D-06 -0.15329071D-06 -0.15329071D-06
 -0.00000000D+00 -0.00000000D+00  0.00000000D+00 -0.15032587D-05 -0.17387377D-05
 -0.17387377D-05 -0.00000000D+00  0.00000000D+00 -0.00000000D+00 -0.33743468D-05
 -0.38109457D-05  0.26517919D-01  0.75039452D+00 -0.59241430D-01  0.29550702D-03
 -0.18499264D-01  0.23345994D-01 -0.43972635D-03  0.11638449D-02 -0.20558427D-05
  0.00000000D+00  0.00000000D+00 -0.88769647D-06  0.00000000D+00 -0.00000000D+00
 -0.16196488D-03 -0.00000000D+00  0.00000000D+00 -0.11308260D-01  0.00000000D+00
 -0.00000000D+00  0.18472246D-06  0.15329071D-06  0.15329071D-06 -0.00000000D+00
 -0.00000000D+00 -0.00000000D+00  0.15032587D-05  0.17387377D-05  0.17387377D-05
 -0.00000000D+00  0.00000000D+00  0.00000000D+00
MO   18     MO 0.0        OCC NO =    0.0000000  ORB. ENERGY =    0.025184
  0.20967595D-02  0.48394169D-02 -0.14275398D-01  0.12596450D-01 -0.17003617D-02
 -0.86373873D-02 -0.18701014D-02  0.64200150D-02  0.22051003D-02 -0.42224300D-03
  0.27243522D-05 -0.00000000D+00  0.00000000D+00  0.23933781D-04 -0.00000000D+00
  0.00000000D+00  0.19078651D-03 -0.00000000D+00 -0.00000000D+00 -0.49900848D-03
  0.00000000D+00  0.00000000D+00 -0.70257720D-07 -0.73774749D-07 -0.73774749D-07
  0.00000000D+00  0.00000000D+00 -0.00000000D+00 -0.15605052D-05 -0.15783114D-05
 -0.15783114D-05 -0.00000000D+00 -0.00000000D+00  0.00000000D+00  0.20967595D-02
  0.48394169D-02 -0.14275398D-01  0.12596450D-01 -0.17003617D-02 -0.86373873D-02
 -0.18701014D-02  0.64200150D-02  0.22051003D-02 -0.42224300D-03 -0.27243522D-05
  0.00000000D+00 -0.00000000D+00 -0.23933781D-04  0.00000000D+00 -0.00000000D+00
 -0.19078651D-03  0.00000000D+00  0.00000000D+00  0.49900848D-03 -0.00000000D+00
 -0.00000000D+00 -0.70257720D-07 -0.73774749D-07 -0.73774749D-07 -0.00000000D+00
 -0.00000000D+00  0.00000000D+00 -0.15605052D-05 -0.15783114D-05 -0.15783114D-05
  0.00000000D+00  0.00000000D+00 -0.00000000D+00
MO   19     MO 0.0        OCC NO =    0.0000000  ORB. ENERGY =    0.034393
 -0.41914572D-04 -0.84219633D-04  0.11504760D-01  0.25663637D+00  0.71464265D-02
  0.12650896D-01  0.10547075D-02 -0.55040132D-02 -0.22479642D-02  0.47078934D-03
  0.25601644D-04  0.00000000D+00  0.00000000D+00  0.28974751D-04  0.00000000D+00
 -0.00000000D+00 -0.39516510D-03 -0.00000000D+00  0.00000000D+00  0.47900439D-02
  0.00000000D+00 -0.00000000D+00  0.22698157D-05  0.22039428D-05  0.22039428D-05
  0.00000000D+00  0.00000000D+00 -0.00000000D+00  0.20036707D-04  0.20437950D-04
  0.20437950D-04  0.00000000D+00 -0.00000000D+00  0.00000000D+00  0.41914572D-04
  0.84219633D-04 -0.11504760D-01 -0.25663637D+00 -0.71464265D-02 -0.12650896D-01
 -0.10547075D-02  0.55040132D-02  0.22479642D-02 -0.47078934D-03  0.25601644D-04
 -0.00000000D+00 -0.00000000D+00  0.28974751D-04 -0.00000000D+00  0.00000000D+00
 -0.39516510D-03  0.00000000D+00 -0.00000000D+00  0.47900439D-02 -0.00000000D+00
  0.00000000D+00 -0.22698157D-05 -0.22039428D-05 -0.22039428D-05  0.00000000D+00
  0.00000000D+00  0.00000000D+00 -0.20036707D-04 -0.20437950D-04 -0.20437950D-04
  0.00000000D+00 -0.00000000D+00 -0.00000000D+00
MO   20     MO 0.0        OCC NO =    0.0000000  ORB. ENERGY =    0.037039
  0.00000000D+00 -0.00000000D+00  0.00000000D+00  0.00000000D+00 -0.00000000D+00
 -0.00000000D+00  0.00000000D+00  0.00000000D+00  0.00000000D+00 -0.00000000D+00
  0.00000000D+00 -0.00000000D+00 -0.00000000D+00 -0.00000000D+00 -0.00000000D+00
 -0.00000000D+00 -0.00000000D+00  0.00000000D+00  0.00000000D+00  0.00000000D+00
 -0.00000000D+00 -0.00000000D+00  0.00000000D+00  0.42556193D-07 -0.42556193D-07
  0.00000000D+00  0.00000000D+00 -0.17462219D-07  0.00000000D+00 -0.59411103D-06
  0.59411103D-06 -0.00000000D+00 -0.00000000D+00  0.24378346D-06  0.00000000D+00
 -0.00000000D+00 -0.00000000D+00 -0.00000000D+00  0.00000000D+00  0.00000000D+00
  0.00000000D+00 -0.00000000D+00 -0.00000000D+00  0.00000000D+00  0.00000000D+00
 -0.00000000D+00 -0.00000000D+00 -0.00000000D+00 -0.00000000D+00 -0.00000000D+00
  0.00000000D+00  0.00000000D+00  0.00000000D+00  0.00000000D+00 -0.00000000D+00
 -0.00000000D+00 -0.00000000D+00  0.42556193D-07 -0.42556193D-07 -0.00000000D+00
 -0.00000000D+00 -0.17462219D-07 -0.00000000D+00 -0.59411103D-06  0.59411103D-06
  0.00000000D+00  0.00000000D+00  0.24378346D-06
MO   21     MO 0.0        OCC NO =    0.0000000  ORB. ENERGY =    0.037039
 -0.00000000D+00  0.00000000D+00  0.00000000D+00  0.00000000D+00  0.00000000D+00
  0.00000000D+00  0.00000000D+00 -0.00000000D+00 -0.00000000D+00  0.00000000D+00
  0.00000000D+00 -0.00000000D+00  0.00000000D+00  0.00000000D+00 -0.00000000D+00
  0.00000000D+00 -0.00000000D+00  0.00000000D+00  0.00000000D+00  0.00000000D+00
 -0.00000000D+00 -0.00000000D+00  0.00000000D+00 -0.87311085D-08  0.87311085D-08
  0.00000000D+00 -0.00000000D+00 -0.85112388D-07  0.00000000D+00  0.12189173D-06
 -0.12189173D-06 -0.00000000D+00  0.00000000D+00  0.11882221D-05 -0.00000000D+00
  0.00000000D+00 -0.00000000D+00 -0.00000000D+00 -0.00000000D+00 -0.00000000D+00
  0.00000000D+00  0.00000000D+00  0.00000000D+00 -0.00000000D+00  0.00000000D+00
 -0.00000000D+00  0.00000000D+00  0.00000000D+00 -0.00000000D+00  0.00000000D+00
 -0.00000000D+00  0.00000000D+00 -0.00000000D+00  0.00000000D+00 -0.00000000D+00
  0.00000000D+00 -0.00000000D+00 -0.87311085D-08  0.87311085D-08 -0.00000000D+00
  0.00000000D+00 -0.85112388D-07 -0.00000000D+00  0.12189173D-06 -0.12189173D-06
  0.00000000D+00 -0.00000000D+00  0.11882221D-05
MO   22     MO 0.0        OCC NO =    0.0000000  ORB. ENERGY =    0.041141
  0.00000000D+00 -0.00000000D+00  0.00000000D+00  0.00000000D+00  0.00000000D+00
 -0.00000000D+00  0.00000000D+00  0.00000000D+00  0.00000000D+00 -0.00000000D+00
  0.00000000D+00 -0.18168199D-05  0.74098135D-06 -0.00000000D+00  0.47081559D-04
 -0.19201988D-04  0.00000000D+00 -0.17819869D-03  0.72677482D-04  0.00000000D+00
  0.24524818D-03 -0.10002329D-03  0.00000000D+00  0.00000000D+00  0.00000000D+00
 -0.14835872D-05  0.60507394D-06  0.00000000D+00  0.00000000D+00  0.00000000D+00
  0.00000000D+00  0.69713851D-05 -0.28432460D-05 -0.00000000D+00  0.00000000D+00
 -0.00000000D+00 -0.00000000D+00 -0.00000000D+00 -0.00000000D+00  0.00000000D+00
 -0.00000000D+00 -0.00000000D+00 -0.00000000D+00  0.00000000D+00  0.00000000D+00
 -0.18168199D-05  0.74098135D-06 -0.00000000D+00  0.47081559D-04 -0.19201988D-04
  0.00000000D+00 -0.17819869D-03  0.72677482D-04  0.00000000D+00  0.24524818D-03
 -0.10002329D-03 -0.00000000D+00 -0.00000000D+00 -0.00000000D+00  0.14835872D-05
 -0.60507394D-06 -0.00000000D+00 -0.00000000D+00 -0.00000000D+00 -0.00000000D+00
 -0.69713851D-05  0.28432460D-05  0.00000000D+00
MO   23     MO 0.0        OCC NO =    0.0000000  ORB. ENERGY =    0.041141
  0.00000000D+00 -0.00000000D+00  0.00000000D+00  0.00000000D+00 -0.00000000D+00
 -0.00000000D+00  0.00000000D+00  0.00000000D+00  0.00000000D+00 -0.00000000D+00
  0.00000000D+00  0.74098135D-06  0.18168199D-05 -0.00000000D+00 -0.19201988D-04
 -0.47081559D-04  0.00000000D+00  0.72677482D-04  0.17819869D-03  0.00000000D+00
 -0.10002329D-03 -0.24524818D-03  0.00000000D+00  0.00000000D+00  0.00000000D+00
  0.60507394D-06  0.14835872D-05 -0.00000000D+00  0.00000000D+00  0.00000000D+00
  0.00000000D+00 -0.28432460D-05 -0.69713851D-05  0.00000000D+00  0.00000000D+00
 -0.00000000D+00 -0.00000000D+00 -0.00000000D+00  0.00000000D+00  0.00000000D+00
 -0.00000000D+00 -0.00000000D+00 -0.00000000D+00  0.00000000D+00  0.00000000D+00
  0.74098135D-06  0.18168199D-05 -0.00000000D+00 -0.19201988D-04 -0.47081559D-04
  0.00000000D+00  0.72677482D-04  0.17819869D-03  0.00000000D+00 -0.10002329D-03
 -0.24524818D-03 -0.00000000D+00 -0.00000000D+00 -0.00000000D+00 -0.60507394D-06
 -0.14835872D-05  0.00000000D+00 -0.00000000D+00 -0.00000000D+00 -0.00000000D+00
  0.28432460D-05  0.69713851D-05 -0.00000000D+00
MO   24     MO 0.0        OCC NO =    0.0000000  ORB. ENERGY =    0.042398
 -0.45804205D-04  0.10687948D-03 -0.10199505D-02 -0.60501785D-01  0.22070359D-02
 -0.49401871D-02  0.64216655D-03  0.76696456D-03  0.83767989D-03 -0.23062768D-03
  0.26281145D-04 -0.00000000D+00 -0.00000000D+00 -0.87069675D-04 -0.00000000D+00
  0.00000000D+00  0.31668061D-05  0.00000000D+00 -0.00000000D+00 -0.10246530D-02
 -0.00000000D+00  0.00000000D+00  0.36503218D-05  0.37154688D-05  0.37154688D-05
  0.00000000D+00 -0.00000000D+00  0.00000000D+00  0.91955150D-05  0.88458094D-05
  0.88458094D-05 -0.00000000D+00  0.00000000D+00 -0.00000000D+00  0.45804205D-04
 -0.10687948D-03  0.10199505D-02  0.60501785D-01 -0.22070359D-02  0.49401871D-02
 -0.64216655D-03 -0.76696456D-03 -0.83767989D-03  0.23062768D-03  0.26281145D-04
  0.00000000D+00  0.00000000D+00 -0.87069675D-04  0.00000000D+00 -0.00000000D+00