[Molden Format]
[Atoms] AU
E+       1       4     0.00000000     0.00000000     0.00000000
E+       2       4    50.00000000     0.00000000     0.00000000
[GTO]
  1 0
s  1 1.00
   1.0000000000E-04   1.0000000000E+00
s  1 1.00
   3.0000000000E-04   1.0000000000E+00
s  1 1.00
   9.0000000000E-04   1.0000000000E+00
s  1 1.00
   2.7000000000E-03   1.0000000000E+00
s  1 1.00
   8.1000000000E-03   1.0000000000E+00
s  1 1.00
   2.4300000000E-02   1.0000000000E+00
s  1 1.00
   7.2900000000E-02   1.0000000000E+00
s  1 1.00
   2.1870000000E-01   1.0000000000E+00
s  1 1.00
   6.5610000000E-01   1.0000000000E+00
s  1 1.00
   1.9683000000E+00   1.0000000000E+00
p  1 1.00
   1.0000000000E-04   1.0000000000E+00
p  1 1.00
   3.0000000000E-04   1.0000000000E+00
p  1 1.00
   9.0000000000E-04   1.0000000000E+00
p  1 1.00
   2.7000000000E-03   1.0000000000E+00
d  1 1.00
   1.0000000000E-04   1.0000000000E+00
d  1 1.00
   3.0000000000E-04   1.0000000000E+00
 
  2 0
s  1 1.00
   1.0000000000E-04   1.0000000000E+00
s  1 1.00
   3.0000000000E-04   1.0000000000E+00
s  1 1.00
   9.0000000000E-04   1.0000000000E+00
s  1 1.00
   2.7000000000E-03   1.0000000000E+00
s  1 1.00
   8.1000000000E-03   1.0000000000E+00
s  1 1.00
   2.4300000000E-02   1.0000000000E+00
s  1 1.00
   7.2900000000E-02   1.0000000000E+00
s  1 1.00
   2.1870000000E-01   1.0000000000E+00
s  1 1.00
   6.5610000000E-01   1.0000000000E+00
s  1 1.00
   1.9683000000E+00   1.0000000000E+00
p  1 1.00
   1.0000000000E-04   1.0000000000E+00
p  1 1.00
   3.0000000000E-04   1.0000000000E+00
p  1 1.00
   9.0000000000E-04   1.0000000000E+00
p  1 1.00
   2.7000000000E-03   1.0000000000E+00
d  1 1.00
   1.0000000000E-04   1.0000000000E+00
d  1 1.00
   3.0000000000E-04   1.0000000000E+00
 
 
[MO]
Ene=     3.15656E-04
Spin= Alpha
Occup=   1.0000000000
   1       0.07588961
   2       0.08699877
   3      -0.17434306
   4      -0.21796481
   5      -0.20953665
   6      -0.17320700
   7      -0.10275843
   8       0.08391585
   9       0.00587853
  10      -0.00010165
  11      -0.04045338
  12      -0.00000000
  13      -0.00000000
  14       0.00267208
  15       0.00000000
  16       0.00000000
  17      -0.02168614
  18       0.00000000
  19       0.00000000
  20      -0.18892630
  21      -0.00000000
  22      -0.00000000
  23      -0.02370122
  24      -0.00833568
  25      -0.00833568
  26      -0.00000000
  27      -0.00000000
  28      -0.00000000
  29      -0.04027021
  30      -0.02994508
  31      -0.02994508
  32       0.00000000
  33       0.00000000
  34       0.00000000
  35       0.07588961
  36       0.08699877
  37      -0.17434306
  38      -0.21796481
  39      -0.20953665
  40      -0.17320700
  41      -0.10275843
  42       0.08391585
  43       0.00587853
  44      -0.00010165
  45       0.04045338
  46       0.00000000
  47       0.00000000
  48      -0.00267208
  49       0.00000000
  50      -0.00000000
  51       0.02168614
  52      -0.00000000
  53      -0.00000000
  54       0.18892630
  55       0.00000000
  56       0.00000000
  57      -0.02370122
  58      -0.00833568
  59      -0.00833568
  60      -0.00000000
  61      -0.00000000
  62       0.00000000
  63      -0.04027021
  64      -0.02994508
  65      -0.02994508
  66       0.00000000
  67       0.00000000
  68      -0.00000000
Ene=     7.79018E-04
Spin= Alpha
Occup=   0.0000000000
   1       0.02154428
   2      -1.41044956
   3       0.00749764
   4      -0.32952682
   5      -0.21482133
   6      -0.20378722
   7      -0.11165219
   8       0.09284506
   9       0.00681141
  10      -0.00015607
  11      -0.02162048
  12       0.00000000
  13       0.00000000
  14      -0.74102687
  15      -0.00000000
  16      -0.00000000
  17       0.10557355
  18      -0.00000000
  19       0.00000000
  20      -0.21551427
  21       0.00000000
  22      -0.00000000
  23      -0.01923508
  24      -0.01720698
  25      -0.01720698
  26       0.00000000
  27       0.00000000
  28      -0.00000000
  29      -0.23482313
  30      -0.04563975
  31      -0.04563975
  32      -0.00000000
  33      -0.00000000
  34       0.00000000
  35      -0.02154428
  36       1.41044956
  37      -0.00749764
  38       0.32952682
  39       0.21482133
  40       0.20378722
  41       0.11165219
  42      -0.09284506
  43      -0.00681141
  44       0.00015607
  45      -0.02162048
  46      -0.00000000
  47      -0.00000000
  48      -0.74102687
  49       0.00000000
  50       0.00000000
  51       0.10557355
  52      -0.00000000
  53      -0.00000000
  54      -0.21551427
  55       0.00000000
  56       0.00000000
  57       0.01923508
  58       0.01720698
  59       0.01720698
  60       0.00000000
  61       0.00000000
  62       0.00000000
  63       0.23482313
  64       0.04563975
  65       0.04563975
  66      -0.00000000
  67      -0.00000000
  68      -0.00000000
Ene=     5.37770E-03
Spin= Alpha
Occup=   0.0000000000
   1       0.61498422
   2       0.16323748
   3      -0.93271441
   4       0.57882988
   5       0.10447506
   6       0.15354199
   7       0.06024761
   8      -0.05452260
   9      -0.00479995
  10       0.00020258
  11      -0.83262938
  12      -0.00000000
  13       0.00000000
  14       0.28798831
  15       0.00000000
  16      -0.00000000
  17      -0.48873924
  18      -0.00000000
  19      -0.00000000
  20       0.08998840
  21       0.00000000
  22       0.00000000
  23      -0.39103053
  24      -0.02937742
  25      -0.02937742
  26      -0.00000000
  27       0.00000000
  28       0.00000000
  29      -0.01887036
  30      -0.09580879
  31      -0.09580879
  32       0.00000000
  33      -0.00000000
  34      -0.00000000
  35       0.61498422
  36       0.16323748
  37      -0.93271441
  38       0.57882988
  39       0.10447506
  40       0.15354199
  41       0.06024761
  42      -0.05452260
  43      -0.00479995
  44       0.00020258
  45       0.83262938
  46       0.00000000
  47      -0.00000000
  48      -0.28798831
  49      -0.00000000
  50       0.00000000
  51       0.48873924
  52       0.00000000
  53      -0.00000000
  54      -0.08998840
  55      -0.00000000
  56       0.00000000
  57      -0.39103053
  58      -0.02937742
  59      -0.02937742
  60      -0.00000000
  61       0.00000000
  62      -0.00000000
  63      -0.01887036
  64      -0.09580879
  65      -0.09580879
  66       0.00000000
  67      -0.00000000
  68      -0.00000000
Ene=     1.15307E-02
Spin= Alpha
Occup=   0.0000000000
   1      -0.01823594
   2       4.32031362
   3      -0.97149304
   4      -0.32264840
   5       0.59869869
   6       0.07109011
   7       0.09803715
   8      -0.06962985
   9      -0.00320637
  10      -0.00016547
  11      -0.09569431
  12       0.00000000
  13      -0.00000000
  14       2.06118986
  15      -0.00000000
  16       0.00000000
  17      -0.29772017
  18       0.00000000
  19      -0.00000000
  20      -0.45572702
  21      -0.00000000
  22      -0.00000000
  23      -0.08432201
  24      -0.06563147
  25      -0.06563147
  26       0.00000000
  27      -0.00000000
  28      -0.00000000
  29       0.40423938
  30      -0.12324955
  31      -0.12324955
  32       0.00000000
  33       0.00000000
  34      -0.00000000
  35       0.01823594
  36      -4.32031362
  37       0.97149304
  38       0.32264840
  39      -0.59869869
  40      -0.07109011
  41      -0.09803715
  42       0.06962985
  43       0.00320637
  44       0.00016547
  45      -0.09569431
  46      -0.00000000
  47       0.00000000
  48       2.06118986
  49       0.00000000
  50      -0.00000000
  51      -0.29772017
  52       0.00000000
  53       0.00000000
  54      -0.45572702
  55       0.00000000
  56      -0.00000000
  57       0.08432201
  58       0.06563147
  59       0.06563147
  60       0.00000000
  61      -0.00000000
  62      -0.00000000
  63      -0.40423938
  64       0.12324955
  65       0.12324955
  66      -0.00000000
  67       0.00000000
  68       0.00000000
Ene=     1.20507E-02
Spin= Alpha
Occup=   0.0000000000
   1      -0.00000000
   2       0.00000000
   3      -0.00000000
   4       0.00000000
   5      -0.00000000
   6       0.00000000
   7      -0.00000000
   8       0.00000000
   9       0.00000000
  10       0.00000000
  11       0.00000000
  12      -0.01156436
  13      -0.04641444
  14       0.00000000
  15       0.03089733
  16       0.12400882
  17      -0.00000000
  18      -0.10461035
  19      -0.41986171
  20       0.00000000
  21      -0.07643055
  22      -0.30675992
  23       0.00000000
  24       0.00000000
  25       0.00000000
  26       0.01150791
  27       0.04618788
  28      -0.00000000
  29       0.00000000
  30       0.00000000
  31       0.00000000
  32      -0.02033319
  33      -0.08160884
  34      -0.00000000
  35       0.00000000
  36      -0.00000000
  37       0.00000000
  38      -0.00000000
  39       0.00000000
  40      -0.00000000
  41       0.00000000
  42      -0.00000000
  43      -0.00000000
  44       0.00000000
  45       0.00000000
  46      -0.01156436
  47      -0.04641444
  48       0.00000000
  49       0.03089733
  50       0.12400882
  51      -0.00000000
  52      -0.10461035
  53      -0.41986171
  54       0.00000000
  55      -0.07643055
  56      -0.30675992
  57      -0.00000000
  58      -0.00000000
  59      -0.00000000
  60      -0.01150791
  61      -0.04618788
  62       0.00000000
  63      -0.00000000
  64      -0.00000000
  65      -0.00000000
  66       0.02033319
  67       0.08160884
  68       0.00000000
Ene=     1.20507E-02
Spin= Alpha
Occup=   0.0000000000
   1      -0.00000000
   2       0.00000000
   3      -0.00000000
   4       0.00000000
   5      -0.00000000
   6      -0.00000000
   7      -0.00000000
   8       0.00000000
   9      -0.00000000
  10       0.00000000
  11      -0.00000000
  12       0.04641444
  13      -0.01156436
  14       0.00000000
  15      -0.12400882
  16       0.03089733
  17      -0.00000000
  18       0.41986171
  19      -0.10461035
  20       0.00000000
  21       0.30675992
  22      -0.07643055
  23      -0.00000000
  24       0.00000000
  25       0.00000000
  26      -0.04618788
  27       0.01150791
  28      -0.00000000
  29       0.00000000
  30       0.00000000
  31       0.00000000
  32       0.08160884
  33      -0.02033319
  34      -0.00000000
  35       0.00000000
  36      -0.00000000
  37      -0.00000000
  38      -0.00000000
  39       0.00000000
  40       0.00000000
  41       0.00000000
  42      -0.00000000
  43      -0.00000000
  44      -0.00000000
  45       0.00000000
  46       0.04641444
  47      -0.01156436
  48       0.00000000
  49      -0.12400882
  50       0.03089733
  51      -0.00000000
  52       0.41986171
  53      -0.10461035
  54       0.00000000
  55       0.30675992
  56      -0.07643055
  57      -0.00000000
  58      -0.00000000
  59      -0.00000000
  60       0.04618788
  61      -0.01150791
  62      -0.00000000
  63      -0.00000000
  64      -0.00000000
  65      -0.00000000
  66      -0.08160884
  67       0.02033319
  68       0.00000000
Ene=     1.28528E-02
Spin= Alpha
Occup=   0.0000000000
   1       0.05091203
   2       0.31996680
   3       0.36082289
   4      -1.36882695
   5       0.83245959
   6      -0.03697602
   7       0.10305845
   8      -0.06165272
   9      -0.00058343
  10      -0.00046907
  11       0.76331085
  12       0.00000000
  13      -0.00000000
  14      -0.19077771
  15      -0.00000000
  16       0.00000000
  17       0.64097716
  18       0.00000000
  19      -0.00000000
  20      -0.82163284
  21       0.00000000
  22       0.00000000
  23       0.26799668
  24      -0.06233805
  25      -0.06233805
  26       0.00000000
  27      -0.00000000
  28      -0.00000000
  29      -0.20644536
  30      -0.20258929
  31      -0.20258929
  32      -0.00000000
  33       0.00000000
  34       0.00000000
  35       0.05091203
  36       0.31996680
  37       0.36082289
  38      -1.36882695
  39       0.83245959
  40      -0.03697602
  41       0.10305845
  42      -0.06165272
  43      -0.00058343
  44      -0.00046907
  45      -0.76331085
  46      -0.00000000
  47       0.00000000
  48       0.19077771
  49       0.00000000
  50      -0.00000000
  51      -0.64097716
  52      -0.00000000
  53       0.00000000
  54       0.82163284
  55       0.00000000
  56      -0.00000000
  57       0.26799668
  58      -0.06233805
  59      -0.06233805
  60       0.00000000
  61      -0.00000000
  62       0.00000000
  63      -0.20644536
  64      -0.20258929
  65      -0.20258929
  66      -0.00000000
  67       0.00000000
  68      -0.00000000
Ene=     1.42874E-02
Spin= Alpha
Occup=   0.0000000000
   1       0.00000000
   2      -0.00000000
   3       0.00000000
   4      -0.00000000
   5       0.00000000
   6       0.00000000
   7      -0.00000000
   8       0.00000000
   9      -0.00000000
  10       0.00000000
  11      -0.00000000
  12       0.06313631
  13       0.02204300
  14      -0.00000000
  15      -0.07446983
  16      -0.02599991
  17       0.00000000
  18      -0.00200734
  19      -0.00070083
  20      -0.00000000
  21      -0.67711599
  22      -0.23640382
  23      -0.00000000
  24      -0.00000000
  25      -0.00000000
  26       0.02085557
  27       0.00728137
  28      -0.00000000
  29      -0.00000000
  30      -0.00000000
  31      -0.00000000
  32      -0.04268930
  33      -0.01490426
  34       0.00000000
  35       0.00000000
  36       0.00000000
  37      -0.00000000
  38       0.00000000
  39      -0.00000000
  40       0.00000000
  41      -0.00000000
  42       0.00000000
  43       0.00000000
  44      -0.00000000
  45       0.00000000
  46      -0.06313631
  47      -0.02204300
  48      -0.00000000
  49       0.07446983
  50       0.02599991
  51       0.00000000
  52       0.00200734
  53       0.00070083
  54      -0.00000000
  55       0.67711599
  56       0.23640382
  57      -0.00000000
  58       0.00000000
  59       0.00000000
  60       0.02085557
  61       0.00728137
  62       0.00000000
  63       0.00000000
  64       0.00000000
  65       0.00000000
  66      -0.04268930
  67      -0.01490426
  68       0.00000000
Ene=     1.42874E-02
Spin= Alpha
Occup=   0.0000000000
   1      -0.00000000
   2       0.00000000
   3       0.00000000
   4      -0.00000000
   5       0.00000000
   6      -0.00000000
   7       0.00000000
   8       0.00000000
   9      -0.00000000
  10       0.00000000
  11      -0.00000000
  12       0.02204300
  13      -0.06313631
  14       0.00000000
  15      -0.02599991
  16       0.07446983
  17       0.00000000
  18      -0.00070083
  19       0.00200734
  20      -0.00000000
  21      -0.23640382
  22       0.67711599
  23       0.00000000
  24       0.00000000
  25       0.00000000
  26       0.00728137
  27      -0.02085557
  28      -0.00000000
  29       0.00000000
  30       0.00000000
  31       0.00000000
  32      -0.01490426
  33       0.04268930
  34       0.00000000
  35       0.00000000
  36      -0.00000000
  37      -0.00000000
  38       0.00000000
  39      -0.00000000
  40       0.00000000
  41      -0.00000000
  42       0.00000000
  43      -0.00000000
  44       0.00000000
  45       0.00000000
  46      -0.02204300
  47       0.06313631
  48       0.00000000
  49       0.02599991
  50      -0.07446983
  51       0.00000000
  52       0.00070083
  53      -0.00200734
  54      -0.00000000
  55       0.23640382
  56      -0.67711599
  57      -0.00000000
  58      -0.00000000
  59      -0.00000000
  60       0.00728137
  61      -0.02085557
  62       0.00000000
  63      -0.00000000
  64      -0.00000000
  65      -0.00000000
  66      -0.01490426
  67       0.04268930
  68      -0.00000000
Ene=     1.80901E-02
Spin= Alpha
Occup=   0.0000000000
   1      -0.17076642
   2      16.60267325
   3      -2.72613775
   4       1.63366145
   5      -0.55690115
   6       0.05327787
   7      -0.04957843
   8       0.02620660
   9      -0.00049408
  10       0.00030586
  11      -0.03036662
  12       0.00000000
  13       0.00000000
  14       8.36576006
  15      -0.00000000
  16      -0.00000000
  17      -1.64262891
  18       0.00000000
  19       0.00000000
  20       0.69778761
  21      -0.00000000
  22      -0.00000000
  23      -0.01098587
  24      -0.01153568
  25      -0.01153568
  26       0.00000000
  27       0.00000000
  28      -0.00000000
  29       2.19408955
  30       0.09425274
  31       0.09425274
  32      -0.00000000
  33      -0.00000000
  34      -0.00000000
  35       0.17076642
  36     -16.60267325
  37       2.72613775
  38      -1.63366145
  39       0.55690115
  40      -0.05327787
  41       0.04957843
  42      -0.02620660
  43       0.00049408
  44      -0.00030586
  45      -0.03036662
  46      -0.00000000
  47      -0.00000000
  48       8.36576006
  49       0.00000000
  50       0.00000000
  51      -1.64262891
  52       0.00000000
  53       0.00000000
  54       0.69778761
  55      -0.00000000
  56      -0.00000000
  57       0.01098587
  58       0.01153568
  59       0.01153568
  60       0.00000000
  61       0.00000000
  62       0.00000000
  63      -2.19408955
  64      -0.09425274
  65      -0.09425274
  66      -0.00000000
  67      -0.00000000
  68       0.00000000
Ene=     1.84924E-02
Spin= Alpha
Occup=   0.0000000000
   1      -0.00000000
   2       0.00000000
   3      -0.00000000
   4      -0.00000000
   5       0.00000000
   6      -0.00000000
   7       0.00000000
   8       0.00000000
   9      -0.00000000
  10       0.00000000
  11       0.00000000
  12      -0.02499419
  13       0.07238868
  14       0.00000000
  15       0.07170728
  16      -0.20768006
  17      -0.00000000
  18      -0.30385688
  19       0.88003637
  20       0.00000000
  21       0.31887809
  22      -0.92354112
  23       0.00000000
  24       0.00000000
  25       0.00000000
  26       0.02123903
  27      -0.06151290
  28      -0.00000000
  29       0.00000000
  30       0.00000000
  31       0.00000000
  32      -0.03968430
  33       0.11493448
  34       0.00000000
  35       0.00000000
  36      -0.00000000
  37      -0.00000000
  38       0.00000000
  39      -0.00000000
  40       0.00000000
  41      -0.00000000
  42       0.00000000
  43      -0.00000000
  44      -0.00000000
  45       0.00000000
  46      -0.02499419
  47       0.07238868
  48       0.00000000
  49       0.07170728
  50      -0.20768006
  51      -0.00000000
  52      -0.30385688
  53       0.88003637
  54       0.00000000
  55       0.31887809
  56      -0.92354112
  57      -0.00000000
  58      -0.00000000
  59      -0.00000000
  60      -0.02123903
  61       0.06151290
  62       0.00000000
  63      -0.00000000
  64      -0.00000000
  65      -0.00000000
  66       0.03968430
  67      -0.11493448
  68      -0.00000000
Ene=     1.84924E-02
Spin= Alpha
Occup=   0.0000000000
   1       0.00000000
   2      -0.00000000
   3      -0.00000000
   4       0.00000000
   5      -0.00000000
   6       0.00000000
   7      -0.00000000
   8       0.00000000
   9       0.00000000
  10      -0.00000000
  11      -0.00000000
  12      -0.07238868
  13      -0.02499419
  14      -0.00000000
  15       0.20768006
  16       0.07170728
  17      -0.00000000
  18      -0.88003637
  19      -0.30385688
  20       0.00000000
  21       0.92354112
  22       0.31887809
  23      -0.00000000
  24      -0.00000000
  25      -0.00000000
  26       0.06151290
  27       0.02123903
  28      -0.00000000
  29      -0.00000000
  30      -0.00000000
  31      -0.00000000
  32      -0.11493448
  33      -0.03968430
  34      -0.00000000
  35      -0.00000000
  36       0.00000000
  37       0.00000000
  38      -0.00000000
  39       0.00000000
  40      -0.00000000
  41       0.00000000
  42      -0.00000000
  43       0.00000000
  44      -0.00000000
  45      -0.00000000
  46      -0.07238868
  47      -0.02499419
  48      -0.00000000
  49       0.20768006
  50       0.07170728
  51      -0.00000000
  52      -0.88003637
  53      -0.30385688
  54       0.00000000
  55       0.92354112
  56       0.31887809
  57       0.00000000
  58       0.00000000
  59       0.00000000
  60      -0.06151290
  61      -0.02123903
  62       0.00000000
  63       0.00000000
  64       0.00000000
  65       0.00000000
  66       0.11493448
  67       0.03968430
  68       0.00000000
Ene=     2.21030E-02
Spin= Alpha
Occup=   0.0000000000
   1      -0.34227266
   2      -0.04696538
   3       0.15794466
   4      -1.01836178
   5       0.66479238
   6       0.02268956
   7       0.06974961
   8      -0.04641826
   9      -0.00162400
  10      -0.00018920
  11       0.44256930
  12       0.00000000
  13       0.00000000
  14      -0.11637714
  15      -0.00000000
  16       0.00000000
  17       0.18319539
  18       0.00000000
  19      -0.00000000
  20       0.31308201
  21      -0.00000000
  22       0.00000000
  23       0.21000606
  24       0.01912962
  25       0.01912962
  26       0.00000000
  27       0.00000000
  28      -0.00000000
  29       0.02950566
  30       0.04504960
  31       0.04504960
  32      -0.00000000
  33      -0.00000000
  34       0.00000000
  35      -0.34227266
  36      -0.04696538
  37       0.15794466
  38      -1.01836178
  39       0.66479238
  40       0.02268956
  41       0.06974961
  42      -0.04641826
  43      -0.00162400
  44      -0.00018920
  45      -0.44256930
  46      -0.00000000
  47      -0.00000000
  48       0.11637714
  49       0.00000000
  50      -0.00000000
  51      -0.18319539
  52      -0.00000000
  53       0.00000000
  54      -0.31308201
  55       0.00000000
  56      -0.00000000
  57       0.21000606
  58       0.01912962
  59       0.01912962
  60       0.00000000
  61       0.00000000
  62       0.00000000
  63       0.02950566
  64       0.04504960
  65       0.04504960
  66      -0.00000000
  67       0.00000000
  68      -0.00000000
Ene=     2.40158E-02
Spin= Alpha
Occup=   0.0000000000
   1       0.04406269
   2      -4.97250801
   3       1.58798410
   4      -1.75969449
   5       0.83887296
   6       0.00871847
   7       0.07837122
   8      -0.05050361
   9      -0.00145265
  10      -0.00025138
  11       0.03672169
  12      -0.00000000
  13      -0.00000000
  14      -2.50819000
  15       0.00000000
  16       0.00000000
  17       0.83298383
  18      -0.00000000
  19      -0.00000000
  20       0.31782897
  21       0.00000000
  22       0.00000000
  23       0.01740226
  24       0.03131288
  25       0.03131288
  26      -0.00000000
  27      -0.00000000
  28       0.00000000
  29      -0.61001063
  30      -0.01203653
  31      -0.01203653
  32       0.00000000
  33       0.00000000
  34       0.00000000
  35      -0.04406269
  36       4.97250801
  37      -1.58798410
  38       1.75969449
  39      -0.83887296
  40      -0.00871847
  41      -0.07837122
  42       0.05050361
  43       0.00145265
  44       0.00025138
  45       0.03672169
  46       0.00000000
  47       0.00000000
  48      -2.50819000
  49      -0.00000000
  50      -0.00000000
  51       0.83298383
  52       0.00000000
  53       0.00000000
  54       0.31782897
  55      -0.00000000
  56      -0.00000000
  57      -0.01740226
  58      -0.03131288
  59      -0.03131288
  60      -0.00000000
  61      -0.00000000
  62       0.00000000
  63       0.61001063
  64       0.01203653
  65       0.01203653
  66       0.00000000
  67       0.00000000
  68      -0.00000000
Ene=     2.47242E-02
Spin= Alpha
Occup=   0.0000000000
   1      -0.00000000
   2       0.00000000
   3       0.00000000
   4      -0.00000000
   5       0.00000000
   6      -0.00000000
   7       0.00000000
   8      -0.00000000
   9       0.00000000
  10      -0.00000000
  11       0.00000000
  12       2.71267067
  13      -0.85730445
  14       0.00000000
  15      -0.69495303
  16       0.21963091
  17      -0.00000000
  18       1.43604780
  19      -0.45384432
  20       0.00000000
  21      -0.77500758
  22       0.24493111
  23       0.00000000
  24       0.00000000
  25       0.00000000
  26       0.64507143
  27      -0.20386648
  28       0.00000000
  29       0.00000000
  30       0.00000000
  31       0.00000000
  32      -0.07505339
  33       0.02371965
  34       0.00000000
  35       0.00000000
  36      -0.00000000
  37       0.00000000
  38       0.00000000
  39      -0.00000000
  40      -0.00000000
  41      -0.00000000
  42       0.00000000
  43       0.00000000
  44      -0.00000000
  45      -0.00000000
  46      -2.71267067
  47       0.85730445
  48       0.00000000
  49       0.69495303
  50      -0.21963091
  51      -0.00000000
  52      -1.43604780
  53       0.45384432
  54       0.00000000
  55       0.77500758
  56      -0.24493111
  57       0.00000000
  58      -0.00000000
  59      -0.00000000
  60       0.64507143
  61      -0.20386648
  62      -0.00000000
  63      -0.00000000
  64      -0.00000000
  65      -0.00000000
  66      -0.07505339
  67       0.02371965
  68       0.00000000
Ene=     2.47242E-02
Spin= Alpha
Occup=   0.0000000000
   1       0.00000000
   2       0.00000000
   3       0.00000000
   4      -0.00000000
   5       0.00000000
   6      -0.00000000
   7       0.00000000
   8      -0.00000000
   9      -0.00000000
  10       0.00000000
  11      -0.00000000
  12       0.85730445
  13       2.71267067
  14       0.00000000
  15      -0.21963091
  16      -0.69495303
  17       0.00000000
  18       0.45384432
  19       1.43604780
  20       0.00000000
  21      -0.24493111
  22      -0.77500758
  23      -0.00000000
  24       0.00000000
  25       0.00000000
  26       0.20386648
  27       0.64507143
  28       0.00000000
  29       0.00000000
  30      -0.00000000
  31      -0.00000000
  32      -0.02371965
  33      -0.07505339
  34      -0.00000000
  35       0.00000000
  36      -0.00000000
  37      -0.00000000
  38       0.00000000
  39      -0.00000000
  40      -0.00000000
  41      -0.00000000
  42       0.00000000
  43      -0.00000000
  44       0.00000000
  45       0.00000000
  46      -0.85730445
  47      -2.71267067
  48       0.00000000
  49       0.21963091
  50       0.69495303
  51       0.00000000
  52      -0.45384432
  53      -1.43604780
  54       0.00000000
  55       0.24493111
  56       0.77500758
  57      -0.00000000
  58      -0.00000000
  59      -0.00000000
  60       0.20386648
  61       0.64507143
  62      -0.00000000
  63      -0.00000000
  64      -0.00000000
  65      -0.00000000
  66      -0.02371965
  67      -0.07505339
  68       0.00000000
Ene=     3.08021E-02
Spin= Alpha
Occup=   0.0000000000
   1      -3.35689367
   2      -0.51911991
   3       0.97314114
   4       0.15110911
   5      -0.17263163
   6       0.02096761
   7      -0.01690167
   8       0.00844779
   9      -0.00027278
  10       0.00011558
  11       3.38321472
  12       0.00000000
  13      -0.00000000
  14      -1.27529595
  15      -0.00000000
  16       0.00000000
  17       1.19792580
  18       0.00000000
  19      -0.00000000
  20      -0.78140773
  21       0.00000000
  22      -0.00000000
  23       1.77103500
  24       0.24796560
  25       0.24796560
  26       0.00000000
  27      -0.00000000
  28      -0.00000000
  29       0.12584701
  30       0.67850367
  31       0.67850367
  32      -0.00000000
  33       0.00000000
  34       0.00000000
  35      -3.35689367
  36      -0.51911991
  37       0.97314114
  38       0.15110911
  39      -0.17263163
  40       0.02096761
  41      -0.01690167
  42       0.00844779
  43      -0.00027278
  44       0.00011558
  45      -3.38321472
  46      -0.00000000
  47       0.00000000
  48       1.27529595
  49       0.00000000
  50      -0.00000000
  51      -1.19792580
  52      -0.00000000
  53       0.00000000
  54       0.78140773
  55       0.00000000
  56       0.00000000
  57       1.77103500
  58       0.24796560
  59       0.24796560
  60       0.00000000
  61      -0.00000000
  62       0.00000000
  63       0.12584701
  64       0.67850367
  65       0.67850367
  66      -0.00000000
  67       0.00000000
  68      -0.00000000
Ene=     3.10737E-02
Spin= Alpha
Occup=   0.0000000000
   1       4.49398629
   2       2.51187581
   3      -4.88362531
   4       2.46069282
   5      -0.72430660
   6      -0.06706070
   7      -0.04759057
   8       0.03678564
   9       0.00237779
  10      -0.00000002
  11      -2.11356309
  12      -0.00000000
  13       0.00000000
  14       1.13016289
  15       0.00000000
  16      -0.00000000
  17      -0.04331267
  18      -0.00000000
  19       0.00000000
  20       0.02213933
  21       0.00000000
  22       0.00000000
  23      -1.48243923
  24      -0.50884224
  25      -0.50884224
  26      -0.00000000
  27       0.00000000
  28       0.00000000
  29      -0.92327437
  30      -1.58808421
  31      -1.58808421
  32       0.00000000
  33      -0.00000000
  34      -0.00000000
  35       4.49398629
  36       2.51187581
  37      -4.88362531
  38       2.46069282
  39      -0.72430660
  40      -0.06706070
  41      -0.04759057
  42       0.03678564
  43       0.00237779
  44      -0.00000002
  45       2.11356309
  46       0.00000000
  47      -0.00000000
  48      -1.13016289
  49      -0.00000000
  50       0.00000000
  51       0.04331267
  52       0.00000000
  53      -0.00000000
  54      -0.02213933
  55      -0.00000000
  56      -0.00000000
  57      -1.48243923
  58      -0.50884224
  59      -0.50884224
  60      -0.00000000
  61       0.00000000
  62      -0.00000000
  63      -0.92327437
  64      -1.58808421
  65      -1.58808421
  66       0.00000000
  67      -0.00000000
  68       0.00000000
Ene=     3.20070E-02
Spin= Alpha
Occup=   0.0000000000
   1      -0.22260853
   2      15.84641576
   3       0.35043519
   4      -0.83606529
   5       0.35837731
   6      -0.00749998
   7       0.02751778
   8      -0.01652237
   9      -0.00023052
  10      -0.00011835
  11       0.17462368
  12       0.00000000