[Molden Format]
[Title]
 Molden2AIM, Version 3.1.0 (02/25/2015)           Time: Thu Oct 17 19:54:02 2024

[Atoms] AU
E+       1       4     0.00000000     0.00000000     0.00000000
E+       2       4    27.40000000     0.00000000     0.00000000
[GTO]
    1 0
 S   1 1.0
    0.1000000000D-03      0.1000000000D+01
 S   1 1.0
    0.3000000000D-03      0.1000000000D+01
 S   1 1.0
    0.9000000000D-03      0.1000000000D+01
 S   1 1.0
    0.2700000000D-02      0.1000000000D+01
 S   1 1.0
    0.8100000000D-02      0.1000000000D+01
 S   1 1.0
    0.2430000000D-01      0.1000000000D+01
 S   1 1.0
    0.7290000000D-01      0.1000000000D+01
 S   1 1.0
    0.2187000000D+00      0.1000000000D+01
 S   1 1.0
    0.6561000000D+00      0.1000000000D+01
 S   1 1.0
    0.1968300000D+01      0.1000000000D+01
 P   1 1.0
    0.1000000000D-03      0.1000000000D+01
 P   1 1.0
    0.3000000000D-03      0.1000000000D+01
 P   1 1.0
    0.9000000000D-03      0.1000000000D+01
 P   1 1.0
    0.2700000000D-02      0.1000000000D+01
 D   1 1.0
    0.1000000000D-03      0.1000000000D+01
 D   1 1.0
    0.3000000000D-03      0.1000000000D+01

    2 0
 S   1 1.0
    0.1000000000D-03      0.1000000000D+01
 S   1 1.0
    0.3000000000D-03      0.1000000000D+01
 S   1 1.0
    0.9000000000D-03      0.1000000000D+01
 S   1 1.0
    0.2700000000D-02      0.1000000000D+01
 S   1 1.0
    0.8100000000D-02      0.1000000000D+01
 S   1 1.0
    0.2430000000D-01      0.1000000000D+01
 S   1 1.0
    0.7290000000D-01      0.1000000000D+01
 S   1 1.0
    0.2187000000D+00      0.1000000000D+01
 S   1 1.0
    0.6561000000D+00      0.1000000000D+01
 S   1 1.0
    0.1968300000D+01      0.1000000000D+01
 P   1 1.0
    0.1000000000D-03      0.1000000000D+01
 P   1 1.0
    0.3000000000D-03      0.1000000000D+01
 P   1 1.0
    0.9000000000D-03      0.1000000000D+01
 P   1 1.0
    0.2700000000D-02      0.1000000000D+01
 D   1 1.0
    0.1000000000D-03      0.1000000000D+01
 D   1 1.0
    0.3000000000D-03      0.1000000000D+01


[MO]
 Ene=         -0.00310677
 Spin= Alpha
 Occup=        1.00000000
    1        0.0794267800
    2       -0.0600887600
    3       -0.0156094900
    4       -0.2785220100
    5       -0.2170810200
    6       -0.1697013900
    7       -0.1089146700
    8        0.0880304700
    9        0.0059784600
   10       -0.0000820500
   11       -0.3448200900
   12       -0.0000000000
   13        0.0000000000
   14        0.1086442100
   15        0.0000000000
   16        0.0000000000
   17       -0.0475989500
   18       -0.0000000000
   19       -0.0000000000
   20        0.0241121200
   21       -0.0000000000
   22        0.0000000000
   23       -0.0808534800
   24        0.0022702700
   25        0.0022702700
   26       -0.0000000000
   27        0.0000000000
   28        0.0000000000
   29        0.0475360200
   30        0.0082742900
   31        0.0082742900
   32        0.0000000000
   33        0.0000000000
   34       -0.0000000000
   35        0.0794267800
   36       -0.0600887600
   37       -0.0156094900
   38       -0.2785220100
   39       -0.2170810200
   40       -0.1697013900
   41       -0.1089146700
   42        0.0880304700
   43        0.0059784600
   44       -0.0000820500
   45        0.3448200900
   46        0.0000000000
   47       -0.0000000000
   48       -0.1086442100
   49       -0.0000000000
   50       -0.0000000000
   51        0.0475989500
   52        0.0000000000
   53        0.0000000000
   54       -0.0241121200
   55       -0.0000000000
   56        0.0000000000
   57       -0.0808534800
   58        0.0022702700
   59        0.0022702700
   60       -0.0000000000
   61        0.0000000000
   62       -0.0000000000
   63        0.0475360200
   64        0.0082742900
   65        0.0082742900
   66        0.0000000000
   67        0.0000000000
   68        0.0000000000
 Ene=         -0.00178251
 Spin= Alpha
 Occup=        0.00000000
    1       -0.0017562600
    2       -0.0068625000
    3       -0.2170381500
    4       -0.3635199000
    5       -0.2339443900
    6       -0.1935794700
    7       -0.1150763300
    8        0.0945124300
    9        0.0067142400
   10       -0.0001288200
   11        0.0111101100
   12        0.0000000000
   13        0.0000000000
   14        0.0203893300
   15       -0.0000000000
   16       -0.0000000000
   17       -0.1374678600
   18        0.0000000000
   19        0.0000000000
   20        0.0627527300
   21       -0.0000000000
   22       -0.0000000000
   23        0.0215039400
   24        0.0101166500
   25        0.0101166500
   26        0.0000000000
   27        0.0000000000
   28        0.0000000000
   29        0.0335963600
   30        0.0474907900
   31        0.0474907900
   32       -0.0000000000
   33       -0.0000000000
   34       -0.0000000000
   35        0.0017562600
   36        0.0068625000
   37        0.2170381500
   38        0.3635199000
   39        0.2339443900
   40        0.1935794700
   41        0.1150763300
   42       -0.0945124300
   43       -0.0067142400
   44        0.0001288200
   45        0.0111101100
   46       -0.0000000000
   47       -0.0000000000
   48        0.0203893300
   49        0.0000000000
   50        0.0000000000
   51       -0.1374678600
   52        0.0000000000
   53       -0.0000000000
   54        0.0627527300
   55       -0.0000000000
   56       -0.0000000000
   57       -0.0215039400
   58       -0.0101166500
   59       -0.0101166500
   60        0.0000000000
   61        0.0000000000
   62        0.0000000000
   63       -0.0335963600
   64       -0.0474907900
   65       -0.0474907900
   66       -0.0000000000
   67       -0.0000000000
   68        0.0000000000
 Ene=          0.00398617
 Spin= Alpha
 Occup=        0.00000000
    1       -0.8643600800
    2        0.0932655700
    3        1.1427730200
    4       -0.9134133700
    5        0.0183749300
    6       -0.1190510800
    7       -0.0316411200
    8        0.0328110400
    9        0.0035327600
   10       -0.0002139700
   11        2.6401100200
   12       -0.0000000000
   13        0.0000000000
   14       -0.8422626700
   15       -0.0000000000
   16        0.0000000000
   17        0.5162601300
   18       -0.0000000000
   19       -0.0000000000
   20       -0.0668256700
   21       -0.0000000000
   22        0.0000000000
   23        0.6532861100
   24        0.0199085200
   25        0.0199085200
   26       -0.0000000000
   27        0.0000000000
   28        0.0000000000
   29       -0.2173880200
   30        0.0753129900
   31        0.0753129900
   32       -0.0000000000
   33        0.0000000000
   34       -0.0000000000
   35       -0.8643600800
   36        0.0932655700
   37        1.1427730200
   38       -0.9134133700
   39        0.0183749300
   40       -0.1190510800
   41       -0.0316411200
   42        0.0328110400
   43        0.0035327600
   44       -0.0002139700
   45       -2.6401100200
   46        0.0000000000
   47       -0.0000000000
   48        0.8422626700
   49        0.0000000000
   50       -0.0000000000
   51       -0.5162601300
   52        0.0000000000
   53        0.0000000000
   54        0.0668256700
   55        0.0000000000
   56       -0.0000000000
   57        0.6532861100
   58        0.0199085200
   59        0.0199085200
   60       -0.0000000000
   61        0.0000000000
   62       -0.0000000000
   63       -0.2173880200
   64        0.0753129900
   65        0.0753129900
   66       -0.0000000000
   67        0.0000000000
   68        0.0000000000
 Ene=          0.00455472
 Spin= Alpha
 Occup=        0.00000000
    1       -0.0000000000
    2        0.0000000000
    3        0.0000000000
    4       -0.0000000000
    5        0.0000000000
    6       -0.0000000000
    7       -0.0000000000
    8       -0.0000000000
    9       -0.0000000000
   10        0.0000000000
   11        0.0000000000
   12        0.0000270600
   13       -0.0285696100
   14       -0.0000000000
   15       -0.0000981600
   16        0.1036411500
   17        0.0000000000
   18        0.0003853500
   19       -0.4068640800
   20       -0.0000000000
   21        0.0002392400
   22       -0.2526040100
   23        0.0000000000
   24       -0.0000000000
   25       -0.0000000000
   26        0.0000204800
   27       -0.0216271900
   28        0.0000000000
   29       -0.0000000000
   30       -0.0000000000
   31       -0.0000000000
   32        0.0000101900
   33       -0.0107594900
   34       -0.0000000000
   35       -0.0000000000
   36        0.0000000000
   37       -0.0000000000
   38        0.0000000000
   39       -0.0000000000
   40        0.0000000000
   41       -0.0000000000
   42        0.0000000000
   43       -0.0000000000
   44       -0.0000000000
   45       -0.0000000000
   46        0.0000270600
   47       -0.0285696100
   48        0.0000000000
   49       -0.0000981600
   50        0.1036411500
   51       -0.0000000000
   52        0.0003853500
   53       -0.4068640800
   54        0.0000000000
   55        0.0002392400
   56       -0.2526040100
   57        0.0000000000
   58       -0.0000000000
   59       -0.0000000000
   60       -0.0000204800
   61        0.0216271900
   62       -0.0000000000
   63       -0.0000000000
   64       -0.0000000000
   65       -0.0000000000
   66       -0.0000101900
   67        0.0107594900
   68        0.0000000000
 Ene=          0.00455472
 Spin= Alpha
 Occup=        0.00000000
    1       -0.0000000000
    2       -0.0000000000
    3        0.0000000000
    4       -0.0000000000
    5        0.0000000000
    6       -0.0000000000
    7       -0.0000000000
    8        0.0000000000
    9       -0.0000000000
   10        0.0000000000
   11        0.0000000000
   12        0.0285696100
   13        0.0000270600
   14        0.0000000000
   15       -0.1036411500
   16       -0.0000981600
   17        0.0000000000
   18        0.4068640800
   19        0.0003853500
   20        0.0000000000
   21        0.2526040100
   22        0.0002392400
   23        0.0000000000
   24        0.0000000000
   25        0.0000000000
   26        0.0216271900
   27        0.0000204800
   28        0.0000000000
   29        0.0000000000
   30       -0.0000000000
   31       -0.0000000000
   32        0.0107594900
   33        0.0000101900
   34        0.0000000000
   35       -0.0000000000
   36       -0.0000000000
   37       -0.0000000000
   38        0.0000000000
   39       -0.0000000000
   40        0.0000000000
   41       -0.0000000000
   42       -0.0000000000
   43        0.0000000000
   44       -0.0000000000
   45       -0.0000000000
   46        0.0285696100
   47        0.0000270600
   48       -0.0000000000
   49       -0.1036411500
   50       -0.0000981600
   51        0.0000000000
   52        0.4068640800
   53        0.0003853500
   54        0.0000000000
   55        0.2526040100
   56        0.0002392400
   57        0.0000000000
   58        0.0000000000
   59        0.0000000000
   60       -0.0216271900
   61       -0.0000204800
   62       -0.0000000000
   63        0.0000000000
   64        0.0000000000
   65        0.0000000000
   66       -0.0107594900
   67       -0.0000101900
   68        0.0000000000
 Ene=          0.00727792
 Spin= Alpha
 Occup=        0.00000000
    1       -0.0173911100
    2        0.0041126800
    3        4.6089198600
    4       -0.0651103600
    5       -0.4558297300
    6       -0.0437371300
    7       -0.0802920300
    8        0.0560113300
    9        0.0023747900
   10        0.0001601400
   11        0.1153308200
   12        0.0000000000
   13       -0.0000000000
   14       -0.0109341300
   15       -0.0000000000
   16        0.0000000000
   17        1.4503493500
   18        0.0000000000
   19       -0.0000000000
   20       -0.0097596800
   21        0.0000000000
   22       -0.0000000000
   23        0.1124227600
   24        0.2031197600
   25        0.2031197600
   26        0.0000000000
   27       -0.0000000000
   28       -0.0000000000
   29        0.2964759800
   30        0.1405240700
   31        0.1405240700
   32       -0.0000000000
   33        0.0000000000
   34       -0.0000000000
   35        0.0173911100
   36       -0.0041126800
   37       -4.6089198600
   38        0.0651103600
   39        0.4558297300
   40        0.0437371300
   41        0.0802920300
   42       -0.0560113300
   43       -0.0023747900
   44       -0.0001601400
   45        0.1153308200
   46       -0.0000000000
   47        0.0000000000
   48       -0.0109341300
   49        0.0000000000
   50       -0.0000000000
   51        1.4503493500
   52       -0.0000000000
   53        0.0000000000
   54       -0.0097596800
   55       -0.0000000000
   56        0.0000000000
   57       -0.1124227600
   58       -0.2031197600
   59       -0.2031197600
   60        0.0000000000
   61       -0.0000000000
   62        0.0000000000
   63       -0.2964759800
   64       -0.1405240700
   65       -0.1405240700
   66       -0.0000000000
   67        0.0000000000
   68       -0.0000000000
 Ene=          0.00729066
 Spin= Alpha
 Occup=        0.00000000
    1        0.0000000000
    2       -0.0000000000
    3        0.0000000000
    4       -0.0000000000
    5       -0.0000000000
    6       -0.0000000000
    7       -0.0000000000
    8        0.0000000000
    9        0.0000000000
   10        0.0000000000
   11        0.0000000000
   12       -1.7526867800
   13       -4.3651105300
   14       -0.0000000000
   15        0.3784493700
   16        0.9425376800
   17        0.0000000000
   18       -0.1724206200
   19       -0.4294179000
   20       -0.0000000000
   21       -0.2549939200
   22       -0.6350687700
   23        0.0000000000
   24        0.0000000000
   25        0.0000000000
   26       -0.2390062100
   27       -0.5952509900
   28       -0.0000000000
   29        0.0000000000
   30        0.0000000000
   31        0.0000000000
   32        0.0735777200
   33        0.1832471600
   34       -0.0000000000
   35       -0.0000000000
   36        0.0000000000
   37       -0.0000000000
   38        0.0000000000
   39        0.0000000000
   40        0.0000000000
   41        0.0000000000
   42       -0.0000000000
   43       -0.0000000000
   44       -0.0000000000
   45        0.0000000000
   46        1.7526867800
   47        4.3651105300
   48       -0.0000000000
   49       -0.3784493700
   50       -0.9425376800
   51        0.0000000000
   52        0.1724206200
   53        0.4294179000
   54       -0.0000000000
   55        0.2549939200
   56        0.6350687700
   57       -0.0000000000
   58       -0.0000000000
   59       -0.0000000000
   60       -0.2390062100
   61       -0.5952509900
   62        0.0000000000
   63       -0.0000000000
   64       -0.0000000000
   65       -0.0000000000
   66        0.0735777200
   67        0.1832471600
   68        0.0000000000
 Ene=          0.00729066
 Spin= Alpha
 Occup=        0.00000000
    1       -0.0000000000
    2        0.0000000000
    3       -0.0000000000
    4        0.0000000000
    5        0.0000000000
    6        0.0000000000
    7        0.0000000000
    8       -0.0000000000
    9       -0.0000000000
   10       -0.0000000000
   11       -0.0000000000
   12        4.3651105300
   13       -1.7526867800
   14        0.0000000000
   15       -0.9425376800
   16        0.3784493700
   17       -0.0000000000
   18        0.4294179000
   19       -0.1724206200
   20        0.0000000000
   21        0.6350687700
   22       -0.2549939200
   23       -0.0000000000
   24       -0.0000000000
   25       -0.0000000000
   26        0.5952509900
   27       -0.2390062100
   28        0.0000000000
   29       -0.0000000000
   30       -0.0000000000
   31       -0.0000000000
   32       -0.1832471600
   33        0.0735777200
   34       -0.0000000000
   35        0.0000000000
   36       -0.0000000000
   37        0.0000000000
   38       -0.0000000000
   39       -0.0000000000
   40       -0.0000000000
   41       -0.0000000000
   42        0.0000000000
   43        0.0000000000
   44        0.0000000000
   45        0.0000000000
   46       -4.3651105300
   47        1.7526867800
   48       -0.0000000000
   49        0.9425376800
   50       -0.3784493700
   51       -0.0000000000
   52       -0.4294179000
   53        0.1724206200
   54        0.0000000000
   55       -0.6350687700
   56        0.2549939200
   57       -0.0000000000
   58        0.0000000000
   59        0.0000000000
   60        0.5952509900
   61       -0.2390062100
   62       -0.0000000000
   63        0.0000000000
   64        0.0000000000
   65        0.0000000000
   66       -0.1832471600
   67        0.0735777200
   68        0.0000000000
 Ene=          0.00757978
 Spin= Alpha
 Occup=        0.00000000
    1       -0.2115552900
    2        0.1023739400
    3       -0.0133975900
    4       -0.3962103900
    5        0.1475346300
    6       -0.0028295700
    7        0.0163527900
    8       -0.0103173800
    9       -0.0002487500
   10       -0.0000561300
   11        0.7795767000
   12       -0.0000000000
   13        0.0000000000
   14       -0.1911880900
   15        0.0000000000
   16       -0.0000000000
   17        0.1014071800
   18       -0.0000000000
   19        0.0000000000
   20        0.6089522400
   21        0.0000000000
   22       -0.0000000000
   23        0.1868794700
   24       -0.0000093500
   25       -0.0000093500
   26       -0.0000000000
   27        0.0000000000
   28        0.0000000000
   29       -0.0713251200
   30       -0.0073553700
   31       -0.0073553700
   32        0.0000000000
   33       -0.0000000000
   34       -0.0000000000
   35       -0.2115552900
   36        0.1023739400
   37       -0.0133975900
   38       -0.3962103900
   39        0.1475346300
   40       -0.0028295700
   41        0.0163527900
   42       -0.0103173800
   43       -0.0002487500
   44       -0.0000561300
   45       -0.7795767000
   46        0.0000000000
   47       -0.0000000000
   48        0.1911880900
   49       -0.0000000000
   50        0.0000000000
   51       -0.1014071800
   52        0.0000000000
   53       -0.0000000000
   54       -0.6089522400
   55       -0.0000000000
   56        0.0000000000
   57        0.1868794700
   58       -0.0000093500
   59       -0.0000093500
   60       -0.0000000000
   61        0.0000000000
   62       -0.0000000000
   63       -0.0713251200
   64       -0.0073553700
   65       -0.0073553700
   66        0.0000000000
   67       -0.0000000000
   68       -0.0000000000
 Ene=          0.01126880
 Spin= Alpha
 Occup=        0.00000000
    1       -0.0000000000
    2        0.0000000000
    3        0.0000000000
    4        0.0000000000
    5        0.0000000000
    6        0.0000000000
    7        0.0000000000
    8       -0.0000000000
    9       -0.0000000000
   10       -0.0000000000
   11        0.0000000000
   12        0.0220382900
   13        0.0473962300
   14       -0.0000000000
   15       -0.0802380700
   16       -0.1725624800
   17        0.0000000000
   18        0.3715490600
   19        0.7990649300
   20        0.0000000000
   21       -0.3834889600
   22       -0.8247432600
   23        0.0000000000
   24        0.0000000000
   25        0.0000000000
   26        0.0120624200
   27        0.0259418100
   28        0.0000000000
   29        0.0000000000
   30       -0.0000000000
   31       -0.0000000000
   32        0.0129284200
   33        0.0278042700
   34        0.0000000000
   35       -0.0000000000
   36       -0.0000000000
   37       -0.0000000000
   38       -0.0000000000
   39        0.0000000000
   40       -0.0000000000
   41       -0.0000000000
   42        0.0000000000
   43        0.0000000000
   44       -0.0000000000
   45       -0.0000000000
   46        0.0220382900
   47        0.0473962300
   48       -0.0000000000
   49       -0.0802380700
   50       -0.1725624800
   51        0.0000000000
   52        0.3715490600
   53        0.7990649300
   54        0.0000000000
   55       -0.3834889600
   56       -0.8247432600
   57        0.0000000000
   58       -0.0000000000
   59       -0.0000000000
   60       -0.0120624200
   61       -0.0259418100
   62        0.0000000000
   63       -0.0000000000
   64       -0.0000000000
   65       -0.0000000000
   66       -0.0129284200
   67       -0.0278042700
   68       -0.0000000000
 Ene=          0.01126880
 Spin= Alpha
 Occup=        0.00000000
    1       -0.0000000000
    2       -0.0000000000
    3       -0.0000000000
    4       -0.0000000000
    5        0.0000000000
    6       -0.0000000000
    7       -0.0000000000
    8        0.0000000000
    9       -0.0000000000
   10        0.0000000000
   11        0.0000000000
   12       -0.0473962300
   13        0.0220382900
   14        0.0000000000
   15        0.1725624800
   16       -0.0802380700
   17       -0.0000000000
   18       -0.7990649300
   19        0.3715490600
   20       -0.0000000000
   21        0.8247432600
   22       -0.3834889600
   23        0.0000000000
   24       -0.0000000000
   25       -0.0000000000
   26       -0.0259418100
   27        0.0120624200
   28        0.0000000000
   29        0.0000000000
   30       -0.0000000000
   31       -0.0000000000
   32       -0.0278042700
   33        0.0129284200
   34       -0.0000000000
   35       -0.0000000000
   36       -0.0000000000
   37        0.0000000000
   38        0.0000000000
   39        0.0000000000
   40        0.0000000000
   41        0.0000000000
   42       -0.0000000000
   43        0.0000000000
   44       -0.0000000000
   45       -0.0000000000
   46       -0.0473962300
   47        0.0220382900
   48       -0.0000000000
   49        0.1725624800
   50       -0.0802380700
   51       -0.0000000000
   52       -0.7990649300
   53        0.3715490600
   54       -0.0000000000
   55        0.8247432600
   56       -0.3834889600
   57        0.0000000000
   58        0.0000000000
   59        0.0000000000
   60        0.0259418100
   61       -0.0120624200
   62       -0.0000000000
   63        0.0000000000
   64       -0.0000000000
   65       -0.0000000000
   66        0.0278042700
   67       -0.0129284200
   68       -0.0000000000
 Ene=          0.01133710
 Spin= Alpha
 Occup=        0.00000000
    1       -0.0136823700
    2        0.0233860500
    3        5.6743331400
    4        0.1329790500
    5        0.0234750500
    6        0.0652837800
    7        0.0148249800
    8       -0.0162460300
    9       -0.0018719400
   10        0.0001212800
   11        0.0919251000
   12        0.0000000000
   13       -0.0000000000
   14       -0.0654071900
   15       -0.0000000000
   16        0.0000000000
   17        1.9824370300
   18        0.0000000000
   19       -0.0000000000
   20        1.5212924200
   21       -0.0000000000
   22        0.0000000000
   23        0.0640048500
   24        0.1856146700
   25        0.1856146700
   26        0.0000000000
   27       -0.0000000000
   28       -0.0000000000
   29        0.2198865000
   30        0.0265940900
   31        0.0265940900
   32       -0.0000000000
   33        0.0000000000
   34        0.0000000000
   35        0.0136823700
   36       -0.0233860500
   37       -5.6743331400
   38       -0.1329790500
   39       -0.0234750500
   40       -0.0652837800
   41       -0.0148249800
   42        0.0162460300
   43        0.0018719400
   44       -0.0001212800
   45        0.0919251000
   46       -0.0000000000
   47        0.0000000000
   48       -0.0654071900
   49        0.0000000000
   50       -0.0000000000
   51        1.9824370300
   52       -0.0000000000
   53        0.0000000000
   54        1.5212924200
   55        0.0000000000
   56        0.0000000000
   57       -0.0640048500
   58       -0.1856146700
   59       -0.1856146700
   60        0.0000000000
   61       -0.0000000000
   62        0.0000000000
   63       -0.2198865000
   64       -0.0265940900
   65       -0.0265940900
   66       -0.0000000000
   67        0.0000000000
   68       -0.0000000000
 Ene=          0.01246690
 Spin= Alpha
 Occup=        0.00000000
    1       -0.6515664100
    2        0.6859274200
    3        0.0701102600
    4       -1.5800873300
    5        1.1688753300
    6       -0.0648700500
    7        0.1394929400
    8       -0.0827085300
    9       -0.0007170900
   10       -0.0006385900
   11        3.8893545100
   12       -0.0000000000
   13        0.0000000000
   14       -0.7315685800
   15        0.0000000000
   16       -0.0000000000
   17        0.6744457000
   18       -0.0000000000
   19        0.0000000000
   20       -0.2672325400
   21        0.0000000000
   22       -0.0000000000
   23        0.8725011000
   24       -0.0606855200
   25       -0.0606855200
   26       -0.0000000000
   27        0.0000000000
   28        0.0000000000
   29       -0.4394032200
   30       -0.2134802800
   31       -0.2134802800
   32        0.0000000000
   33       -0.0000000000
   34       -0.0000000000
   35       -0.6515664100
   36        0.6859274200
   37        0.0701102600
   38       -1.5800873300
   39        1.1688753300
   40       -0.0648700500
   41        0.1394929400
   42       -0.0827085300
   43       -0.0007170900
   44       -0.0006385900
   45       -3.8893545100
   46        0.0000000000
   47       -0.0000000000
   48        0.7315685800
   49       -0.0000000000
   50        0.0000000000
   51       -0.6744457000
   52        0.0000000000
   53       -0.0000000000
   54        0.2672325400
   55       -0.0000000000
   56        0.0000000000
   57        0.8725011000
   58       -0.0606855200
   59       -0.0606855200
   60       -0.0000000000
   61        0.0000000000
   62       -0.0000000000
   63       -0.4394032200
   64       -0.2134802800
   65       -0.2134802800
   66        0.0000000000
   67       -0.0000000000
   68        0.0000000000
 Ene=          0.01676630
 Spin= Alpha
 Occup=        0.00000000
    1        0.0000000000
    2       -0.0000000000
    3       -0.0000000000
    4        0.0000000000
    5       -0.0000000000
    6        0.0000000000
    7       -0.0000000000
    8        0.0000000000
    9       -0.0000000000
   10        0.0000000000
   11        0.0000000000
   12      -17.0135503400
   13       -2.2806880900
   14       -0.0000000000
   15        3.6185912600
   16        0.4850767700
   17       -0.0000000000
   18       -2.0598815900
   19       -0.2761297500
   20        0.0000000000
   21        1.0087989300
   22        0.1352307800
   23        0.0000000000
   24       -0.0000000000
   25       -0.0000000000
   26       -2.3200968800
   27       -0.3110119400
   28       -0.0000000000
   29       -0.0000000000
   30       -0.0000000000
   31       -0.0000000000
   32        0.6966330000
   33        0.0933845400
   34        0.0000000000
   35       -0.0000000000
   36        0.0000000000
   37        0.0000000000
   38       -0.0000000000
   39        0.0000000000
   40       -0.0000000000
   41        0.0000000000
   42       -0.0000000000
   43        0.0000000000
   44       -0.0000000000
   45       -0.0000000000
   46       17.0135503400
   47        2.2806880900
   48        0.0000000000
   49       -3.6185912600
   50       -0.4850767700
   51       -0.0000000000
   52        2.0598815900
   53        0.2761297500
   54        0.0000000000
   55       -1.0087989300
   56       -0.1352307800
   57        0.0000000000
   58        0.0000000000
   59        0.0000000000
   60       -2.3200968800
   61       -0.3110119400
   62        0.0000000000
   63       -0.0000000000
   64       -0.0000000000
   65       -0.0000000000
   66        0.6966330000
   67        0.0933845400
   68       -0.0000000000
 Ene=          0.01676630
 Spin= Alpha
 Occup=        0.00000000
    1        0.0000000000
    2       -0.0000000000
    3       -0.0000000000
    4        0.0000000000
    5       -0.0000000000
    6        0.0000000000
    7       -0.0000000000
    8        0.0000000000
    9       -0.0000000000
   10        0.0000000000
   11       -0.0000000000
   12        2.2806880900
   13      -17.0135503300
   14       -0.0000000000
   15       -0.4850767700
   16        3.6185912600
   17       -0.0000000000
   18        0.2761297500
   19       -2.0598815900
   20        0.0000000000
   21       -0.1352307800
   22        1.0087989300
   23       -0.0000000000
   24       -0.0000000000
   25       -0.0000000000
   26        0.3110119400
   27       -2.3200968800
   28       -0.0000000000
   29       -0.0000000000
   30       -0.0000000000
   31       -0.0000000000
   32       -0.0933845400
   33        0.6966330000
   34        0.0000000000
   35        0.0000000000
   36        0.0000000000
   37        0.0000000000
   38       -0.0000000000
   39        0.0000000000
   40       -0.0000000000
   41        0.0000000000
   42       -0.0000000000
   43        0.0000000000
   44       -0.0000000000
   45        0.0000000000
   46       -2.2806880900
   47       17.0135503300
   48       -0.0000000000
   49        0.4850767700
   50       -3.6185912600
   51       -0.0000000000
   52       -0.2761297500
   53        2.0598815900
   54        0.0000000000
   55        0.1352307800
   56       -1.0087989300
   57       -0.0000000000
   58        0.0000000000
   59        0.0000000000
   60        0.3110119400
   61       -2.3200968800
   62        0.0000000000
   63        0.0000000000
   64        0.0000000000
   65        0.0000000000
   66       -0.0933845400
   67        0.6966330000
   68       -0.0000000000
 Ene=          0.01694470
 Spin= Alpha
 Occup=        0.00000000
    1       -0.0120501000
    2       -0.0155187600
    3        4.6644320600
    4       -3.3263255700
    5        1.4291133400
    6       -0.1254765700
    7        0.1226009300
    8       -0.0663967100
    9        0.0007154900
   10       -0.0006977500
   11        0.0788800500
   12        0.0000000000
   13        0.0000000000
   14        0.0787540100
   15        0.0000000000
   16        0.0000000000