 Molden2AIM, Version 3.1.0 (02/25/2015)           Time: Thu Oct 17 19:52:55 2024
GAUSSIAN             68 MOL ORBITALS     68 PRIMITIVES        2 NUCLEI
  Be   1    (CENTRE  1)   0.00000000  0.00000000  0.00000000  CHARGE =  4.0
  Be   2    (CENTRE  2)  13.20000000  0.00000000  0.00000000  CHARGE =  4.0
CENTRE ASSIGNMENTS    1  1  1  1  1  1  1  1  1  1  1  1  1  1  1  1  1  1  1  1
CENTRE ASSIGNMENTS    1  1  1  1  1  1  1  1  1  1  1  1  1  1  2  2  2  2  2  2
CENTRE ASSIGNMENTS    2  2  2  2  2  2  2  2  2  2  2  2  2  2  2  2  2  2  2  2
CENTRE ASSIGNMENTS    2  2  2  2  2  2  2  2
TYPE ASSIGNMENTS      1  1  1  1  1  1  1  1  1  1  2  3  4  2  3  4  2  3  4  2
TYPE ASSIGNMENTS      3  4  5  6  7  8  9 10  5  6  7  8  9 10  1  1  1  1  1  1
TYPE ASSIGNMENTS      1  1  1  1  2  3  4  2  3  4  2  3  4  2  3  4  5  6  7  8
TYPE ASSIGNMENTS      9 10  5  6  7  8  9 10
EXPONENTS  0.1000000D-03 0.3000000D-03 0.9000000D-03 0.2700000D-02 0.8100000D-02
EXPONENTS  0.2430000D-01 0.7290000D-01 0.2187000D+00 0.6561000D+00 0.1968300D+01
EXPONENTS  0.1000000D-03 0.1000000D-03 0.1000000D-03 0.3000000D-03 0.3000000D-03
EXPONENTS  0.3000000D-03 0.9000000D-03 0.9000000D-03 0.9000000D-03 0.2700000D-02
EXPONENTS  0.2700000D-02 0.2700000D-02 0.1000000D-03 0.1000000D-03 0.1000000D-03
EXPONENTS  0.1000000D-03 0.1000000D-03 0.1000000D-03 0.3000000D-03 0.3000000D-03
EXPONENTS  0.3000000D-03 0.3000000D-03 0.3000000D-03 0.3000000D-03 0.1000000D-03
EXPONENTS  0.3000000D-03 0.9000000D-03 0.2700000D-02 0.8100000D-02 0.2430000D-01
EXPONENTS  0.7290000D-01 0.2187000D+00 0.6561000D+00 0.1968300D+01 0.1000000D-03
EXPONENTS  0.1000000D-03 0.1000000D-03 0.3000000D-03 0.3000000D-03 0.3000000D-03
EXPONENTS  0.9000000D-03 0.9000000D-03 0.9000000D-03 0.2700000D-02 0.2700000D-02
EXPONENTS  0.2700000D-02 0.1000000D-03 0.1000000D-03 0.1000000D-03 0.1000000D-03
EXPONENTS  0.1000000D-03 0.1000000D-03 0.3000000D-03 0.3000000D-03 0.3000000D-03
EXPONENTS  0.3000000D-03 0.3000000D-03 0.3000000D-03
MO    1     MO 0.0        OCC NO =    1.0000000  ORB. ENERGY =   -0.007159
 -0.76484130D-05 -0.16888202D-03  0.13578549D-03  0.97506496D-03  0.48810589D-02
  0.93427929D-02  0.12083727D-01 -0.23130962D-01 -0.39341932D-02  0.23080533D-03
 -0.76491827D-07  0.00000000D+00  0.00000000D+00  0.21122807D-04 -0.00000000D+00
  0.00000000D+00 -0.49569259D-05  0.00000000D+00 -0.00000000D+00  0.26134724D-04
 -0.00000000D+00  0.00000000D+00  0.17420611D-09  0.25056541D-09  0.25056541D-09
  0.00000000D+00  0.00000000D+00 -0.00000000D+00  0.90730578D-07  0.77471479D-08
  0.77471479D-08 -0.00000000D+00  0.00000000D+00 -0.00000000D+00 -0.76484130D-05
 -0.16888202D-03  0.13578549D-03  0.97506496D-03  0.48810589D-02  0.93427929D-02
  0.12083727D-01 -0.23130962D-01 -0.39341932D-02  0.23080533D-03  0.76491827D-07
 -0.00000000D+00 -0.00000000D+00 -0.21122807D-04  0.00000000D+00 -0.00000000D+00
  0.49569259D-05 -0.00000000D+00  0.00000000D+00 -0.26134724D-04  0.00000000D+00
 -0.00000000D+00  0.17420611D-09  0.25056541D-09  0.25056541D-09  0.00000000D+00
  0.00000000D+00  0.00000000D+00  0.90730578D-07  0.77471479D-08  0.77471479D-08
 -0.00000000D+00  0.00000000D+00  0.00000000D+00
MO    2     MO 0.0        OCC NO =    0.0000000  ORB. ENERGY =    0.000891
  0.22263066D-05  0.24740320D-05 -0.17394013D-01  0.16202637D-02 -0.75749640D-02
 -0.72440052D-02 -0.10837694D-01  0.19966830D-01  0.31211250D-02 -0.97068990D-04
 -0.59889453D-06  0.00000000D+00 -0.00000000D+00 -0.10819543D-05 -0.00000000D+00
 -0.00000000D+00 -0.17002847D-03  0.00000000D+00 -0.00000000D+00  0.19923982D-03
 -0.00000000D+00  0.00000000D+00 -0.17138294D-07 -0.21832076D-07 -0.21832076D-07
  0.00000000D+00 -0.00000000D+00  0.00000000D+00 -0.25447078D-06 -0.20118834D-06
 -0.20118834D-06 -0.00000000D+00 -0.00000000D+00  0.00000000D+00 -0.22263066D-05
 -0.24740320D-05  0.17394013D-01 -0.16202637D-02  0.75749640D-02  0.72440052D-02
  0.10837694D-01 -0.19966830D-01 -0.31211250D-02  0.97068990D-04 -0.59889453D-06
 -0.00000000D+00  0.00000000D+00 -0.10819543D-05  0.00000000D+00  0.00000000D+00
 -0.17002847D-03 -0.00000000D+00  0.00000000D+00  0.19923982D-03  0.00000000D+00
 -0.00000000D+00  0.17138294D-07  0.21832076D-07  0.21832076D-07  0.00000000D+00
 -0.00000000D+00 -0.00000000D+00  0.25447078D-06  0.20118834D-06  0.20118834D-06
 -0.00000000D+00 -0.00000000D+00 -0.00000000D+00
MO    3     MO 0.0        OCC NO =    0.0000000  ORB. ENERGY =    0.002732
 -0.11687120D-03  0.50465450D-04  0.44264094D-02 -0.62260472D-02  0.22727275D-02
 -0.51551822D-02 -0.93227498D-03  0.42234505D-02  0.16450745D-02 -0.34067710D-03
 -0.10789335D-06 -0.00000000D+00 -0.00000000D+00 -0.89753021D-04  0.00000000D+00
 -0.00000000D+00  0.56495002D-04 -0.00000000D+00 -0.00000000D+00 -0.37733945D-04
  0.00000000D+00 -0.00000000D+00  0.34797540D-08  0.38768855D-08  0.38768855D-08
 -0.00000000D+00 -0.00000000D+00  0.00000000D+00 -0.23272848D-06  0.11467585D-06
  0.11467585D-06  0.00000000D+00 -0.00000000D+00  0.00000000D+00 -0.11687120D-03
  0.50465450D-04  0.44264094D-02 -0.62260472D-02  0.22727275D-02 -0.51551822D-02
 -0.93227498D-03  0.42234505D-02  0.16450745D-02 -0.34067710D-03  0.10789335D-06
  0.00000000D+00  0.00000000D+00  0.89753021D-04 -0.00000000D+00  0.00000000D+00
 -0.56495002D-04  0.00000000D+00 -0.00000000D+00  0.37733945D-04 -0.00000000D+00
  0.00000000D+00  0.34797540D-08  0.38768855D-08  0.38768855D-08 -0.00000000D+00
 -0.00000000D+00 -0.00000000D+00 -0.23272848D-06  0.11467585D-06  0.11467585D-06
  0.00000000D+00 -0.00000000D+00 -0.00000000D+00
MO    4     MO 0.0        OCC NO =    0.0000000  ORB. ENERGY =    0.003639
  0.00000000D+00 -0.00000000D+00  0.00000000D+00  0.00000000D+00  0.00000000D+00
  0.00000000D+00  0.00000000D+00 -0.00000000D+00 -0.00000000D+00 -0.00000000D+00
  0.00000000D+00  0.64286033D-10 -0.40451766D-06  0.00000000D+00 -0.10788567D-08
  0.67916540D-05  0.00000000D+00  0.19509123D-07 -0.12280180D-03  0.00000000D+00
  0.62112363D-08 -0.39089872D-04  0.00000000D+00  0.00000000D+00  0.00000000D+00
  0.52512139D-11 -0.33047865D-07 -0.00000000D+00  0.00000000D+00 -0.00000000D+00
 -0.00000000D+00 -0.17857792D-10  0.11245888D-06 -0.00000000D+00  0.00000000D+00
 -0.00000000D+00 -0.00000000D+00  0.00000000D+00 -0.00000000D+00  0.00000000D+00
  0.00000000D+00 -0.00000000D+00 -0.00000000D+00  0.00000000D+00  0.00000000D+00
  0.64286033D-10 -0.40451766D-06 -0.00000000D+00 -0.10788567D-08  0.67916540D-05
  0.00000000D+00  0.19509123D-07 -0.12280180D-03 -0.00000000D+00  0.62112363D-08
 -0.39089872D-04 -0.00000000D+00 -0.00000000D+00 -0.00000000D+00 -0.52512139D-11
  0.33047865D-07  0.00000000D+00  0.00000000D+00 -0.00000000D+00 -0.00000000D+00
  0.17857792D-10 -0.11245888D-06  0.00000000D+00
MO    5     MO 0.0        OCC NO =    0.0000000  ORB. ENERGY =    0.003639
  0.00000000D+00  0.00000000D+00 -0.00000000D+00 -0.00000000D+00  0.00000000D+00
  0.00000000D+00  0.00000000D+00 -0.00000000D+00 -0.00000000D+00 -0.00000000D+00
  0.00000000D+00  0.40451766D-06  0.64286033D-10 -0.00000000D+00 -0.67916540D-05
 -0.10788567D-08 -0.00000000D+00  0.12280180D-03  0.19509123D-07 -0.00000000D+00
  0.39089872D-04  0.62112363D-08  0.00000000D+00  0.00000000D+00  0.00000000D+00
  0.33047865D-07  0.52512139D-11 -0.00000000D+00 -0.00000000D+00  0.00000000D+00
  0.00000000D+00 -0.11245888D-06 -0.17857792D-10  0.00000000D+00  0.00000000D+00
  0.00000000D+00  0.00000000D+00  0.00000000D+00 -0.00000000D+00 -0.00000000D+00
 -0.00000000D+00  0.00000000D+00  0.00000000D+00  0.00000000D+00 -0.00000000D+00
  0.40451766D-06  0.64286033D-10  0.00000000D+00 -0.67916540D-05 -0.10788567D-08
 -0.00000000D+00  0.12280180D-03  0.19509123D-07 -0.00000000D+00  0.39089872D-04
  0.62112363D-08 -0.00000000D+00 -0.00000000D+00 -0.00000000D+00 -0.33047865D-07
 -0.52512139D-11  0.00000000D+00 -0.00000000D+00 -0.00000000D+00 -0.00000000D+00
  0.11245888D-06  0.17857792D-10 -0.00000000D+00
MO    6     MO 0.0        OCC NO =    0.0000000  ORB. ENERGY =    0.004950
 -0.84832406D-05 -0.11264868D-04  0.69621123D-01 -0.17198939D-01 -0.36214871D-02
 -0.57469187D-02 -0.66850497D-02  0.12869161D-01  0.22155851D-02 -0.12424973D-03
  0.22777361D-05 -0.00000000D+00  0.00000000D+00  0.48580636D-05  0.00000000D+00
  0.00000000D+00  0.66731659D-03 -0.00000000D+00 -0.00000000D+00 -0.33456193D-03
  0.00000000D+00  0.00000000D+00  0.65533780D-07  0.82546156D-07  0.82546156D-07
 -0.00000000D+00  0.00000000D+00  0.00000000D+00  0.98613920D-06  0.79094005D-06
  0.79094005D-06  0.00000000D+00  0.00000000D+00 -0.00000000D+00  0.84832406D-05
  0.11264868D-04 -0.69621123D-01  0.17198939D-01  0.36214871D-02  0.57469187D-02
  0.66850497D-02 -0.12869161D-01 -0.22155851D-02  0.12424973D-03  0.22777361D-05
  0.00000000D+00 -0.00000000D+00  0.48580636D-05 -0.00000000D+00 -0.00000000D+00
  0.66731659D-03  0.00000000D+00  0.00000000D+00 -0.33456193D-03 -0.00000000D+00
  0.00000000D+00 -0.65533780D-07 -0.82546156D-07 -0.82546156D-07 -0.00000000D+00
  0.00000000D+00 -0.00000000D+00 -0.98613920D-06 -0.79094005D-06 -0.79094005D-06
  0.00000000D+00  0.00000000D+00  0.00000000D+00
MO    7     MO 0.0        OCC NO =    0.0000000  ORB. ENERGY =    0.006726
  0.20032552D-03  0.66654334D-02 -0.11605049D-02 -0.56711974D-02  0.26270418D-02
 -0.17614816D-02  0.18510763D-02 -0.17158563D-02  0.35513641D-03 -0.19428010D-03
  0.28832032D-05 -0.00000000D+00 -0.00000000D+00 -0.89529851D-03  0.00000000D+00
 -0.00000000D+00  0.38954270D-03 -0.00000000D+00  0.00000000D+00  0.44462198D-03
 -0.00000000D+00  0.00000000D+00 -0.47273733D-08 -0.61962590D-08 -0.61962590D-08
 -0.00000000D+00 -0.00000000D+00 -0.00000000D+00 -0.37012835D-05 -0.21885539D-06
 -0.21885539D-06  0.00000000D+00 -0.00000000D+00  0.00000000D+00  0.20032552D-03
  0.66654334D-02 -0.11605049D-02 -0.56711974D-02  0.26270418D-02 -0.17614816D-02
  0.18510763D-02 -0.17158563D-02  0.35513641D-03 -0.19428010D-03 -0.28832032D-05
  0.00000000D+00  0.00000000D+00  0.89529851D-03 -0.00000000D+00  0.00000000D+00
 -0.38954270D-03  0.00000000D+00 -0.00000000D+00 -0.44462198D-03  0.00000000D+00
 -0.00000000D+00 -0.47273733D-08 -0.61962590D-08 -0.61962590D-08 -0.00000000D+00
 -0.00000000D+00  0.00000000D+00 -0.37012835D-05 -0.21885539D-06 -0.21885539D-06
  0.00000000D+00 -0.00000000D+00 -0.00000000D+00
MO    8     MO 0.0        OCC NO =    0.0000000  ORB. ENERGY =    0.006838
 -0.00000000D+00 -0.00000000D+00 -0.00000000D+00 -0.00000000D+00  0.00000000D+00
 -0.00000000D+00  0.00000000D+00 -0.00000000D+00  0.00000000D+00 -0.00000000D+00
 -0.00000000D+00 -0.11433645D-04 -0.20096718D-05 -0.00000000D+00 -0.86256506D-03
 -0.15161155D-03  0.00000000D+00  0.45772727D-03  0.80453918D-04  0.00000000D+00
  0.51733498D-03  0.90931060D-04 -0.00000000D+00  0.00000000D+00 -0.00000000D+00
 -0.21923687D-07 -0.38534873D-08  0.00000000D+00 -0.00000000D+00 -0.00000000D+00
 -0.00000000D+00 -0.32716948D-05 -0.57506004D-06  0.00000000D+00  0.00000000D+00
  0.00000000D+00  0.00000000D+00 -0.00000000D+00  0.00000000D+00 -0.00000000D+00
  0.00000000D+00 -0.00000000D+00  0.00000000D+00 -0.00000000D+00  0.00000000D+00
  0.11433645D-04  0.20096718D-05  0.00000000D+00  0.86256506D-03  0.15161155D-03
 -0.00000000D+00 -0.45772727D-03 -0.80453918D-04 -0.00000000D+00 -0.51733498D-03
 -0.90931060D-04 -0.00000000D+00  0.00000000D+00  0.00000000D+00 -0.21923687D-07
 -0.38534873D-08 -0.00000000D+00 -0.00000000D+00 -0.00000000D+00 -0.00000000D+00
 -0.32716948D-05 -0.57506004D-06 -0.00000000D+00
MO    9     MO 0.0        OCC NO =    0.0000000  ORB. ENERGY =    0.006838
  0.00000000D+00  0.00000000D+00  0.00000000D+00 -0.00000000D+00  0.00000000D+00
 -0.00000000D+00  0.00000000D+00 -0.00000000D+00  0.00000000D+00 -0.00000000D+00
 -0.00000000D+00 -0.20096718D-05  0.11433645D-04  0.00000000D+00 -0.15161155D-03
  0.86256506D-03  0.00000000D+00  0.80453918D-04 -0.45772727D-03  0.00000000D+00
  0.90931060D-04 -0.51733498D-03 -0.00000000D+00  0.00000000D+00 -0.00000000D+00
 -0.38534873D-08  0.21923687D-07  0.00000000D+00 -0.00000000D+00 -0.00000000D+00
 -0.00000000D+00 -0.57506004D-06  0.32716948D-05 -0.00000000D+00 -0.00000000D+00
 -0.00000000D+00 -0.00000000D+00 -0.00000000D+00  0.00000000D+00 -0.00000000D+00
  0.00000000D+00 -0.00000000D+00  0.00000000D+00 -0.00000000D+00  0.00000000D+00
  0.20096718D-05 -0.11433645D-04  0.00000000D+00  0.15161155D-03 -0.86256506D-03
 -0.00000000D+00 -0.80453918D-04  0.45772727D-03 -0.00000000D+00 -0.90931060D-04
  0.51733498D-03 -0.00000000D+00 -0.00000000D+00  0.00000000D+00 -0.38534873D-08
  0.21923687D-07 -0.00000000D+00 -0.00000000D+00  0.00000000D+00  0.00000000D+00
 -0.57506004D-06  0.32716948D-05  0.00000000D+00
MO   10     MO 0.0        OCC NO =    0.0000000  ORB. ENERGY =    0.009386
 -0.00000000D+00 -0.00000000D+00 -0.00000000D+00 -0.00000000D+00  0.00000000D+00
 -0.00000000D+00 -0.00000000D+00  0.00000000D+00  0.00000000D+00 -0.00000000D+00
 -0.00000000D+00 -0.73978828D-10  0.42217237D-06  0.00000000D+00  0.12499430D-08
 -0.71310538D-05 -0.00000000D+00 -0.26463969D-07  0.15094359D-03 -0.00000000D+00
  0.12144371D-06 -0.69267825D-03  0.00000000D+00 -0.00000000D+00  0.00000000D+00
 -0.53281861D-11  0.30385160D-07  0.00000000D+00  0.00000000D+00  0.00000000D+00
  0.00000000D+00  0.15810774D-10 -0.90229046D-07  0.00000000D+00 -0.00000000D+00
 -0.00000000D+00  0.00000000D+00  0.00000000D+00 -0.00000000D+00  0.00000000D+00
  0.00000000D+00 -0.00000000D+00 -0.00000000D+00 -0.00000000D+00  0.00000000D+00
 -0.73978828D-10  0.42217237D-06 -0.00000000D+00  0.12499430D-08 -0.71310538D-05
 -0.00000000D+00 -0.26463969D-07  0.15094359D-03 -0.00000000D+00  0.12144371D-06
 -0.69267825D-03 -0.00000000D+00  0.00000000D+00  0.00000000D+00  0.53281861D-11
 -0.30385160D-07 -0.00000000D+00  0.00000000D+00 -0.00000000D+00 -0.00000000D+00
 -0.15810774D-10  0.90229046D-07 -0.00000000D+00
MO   11     MO 0.0        OCC NO =    0.0000000  ORB. ENERGY =    0.009386
  0.00000000D+00  0.00000000D+00  0.00000000D+00  0.00000000D+00  0.00000000D+00
  0.00000000D+00  0.00000000D+00 -0.00000000D+00  0.00000000D+00 -0.00000000D+00
  0.00000000D+00 -0.42217237D-06 -0.73978828D-10 -0.00000000D+00  0.71310538D-05
  0.12499430D-08  0.00000000D+00 -0.15094359D-03 -0.26463969D-07  0.00000000D+00
  0.69267825D-03  0.12144371D-06 -0.00000000D+00 -0.00000000D+00 -0.00000000D+00
 -0.30385160D-07 -0.53281861D-11  0.00000000D+00 -0.00000000D+00 -0.00000000D+00
 -0.00000000D+00  0.90229046D-07  0.15810774D-10  0.00000000D+00  0.00000000D+00
  0.00000000D+00 -0.00000000D+00 -0.00000000D+00 -0.00000000D+00 -0.00000000D+00
 -0.00000000D+00  0.00000000D+00  0.00000000D+00  0.00000000D+00 -0.00000000D+00
 -0.42217237D-06 -0.73978828D-10  0.00000000D+00  0.71310538D-05  0.12499430D-08
  0.00000000D+00 -0.15094359D-03 -0.26463969D-07  0.00000000D+00  0.69267825D-03
  0.12144371D-06  0.00000000D+00  0.00000000D+00  0.00000000D+00  0.30385160D-07
  0.53281861D-11 -0.00000000D+00 -0.00000000D+00  0.00000000D+00  0.00000000D+00
 -0.90229046D-07 -0.15810774D-10 -0.00000000D+00
MO   12     MO 0.0        OCC NO =    0.0000000  ORB. ENERGY =    0.010427
  0.19090315D-05  0.10712709D-03  0.24788975D+00  0.96450243D-01 -0.23466165D-02
  0.24631140D-02  0.11314127D-02 -0.28448335D-02 -0.71888716D-03  0.99994324D-04
 -0.63764547D-06 -0.00000000D+00  0.00000000D+00 -0.14033873D-04  0.00000000D+00
  0.00000000D+00  0.29688112D-02 -0.00000000D+00 -0.00000000D+00  0.44709467D-02
  0.00000000D+00  0.00000000D+00 -0.57989360D-07  0.10963215D-07  0.10963215D-07
 -0.00000000D+00  0.00000000D+00  0.00000000D+00 -0.33529510D-06 -0.10472189D-05
 -0.10472189D-05  0.00000000D+00  0.00000000D+00  0.00000000D+00 -0.19090315D-05
 -0.10712709D-03 -0.24788975D+00 -0.96450243D-01  0.23466165D-02 -0.24631140D-02
 -0.11314127D-02  0.28448335D-02  0.71888716D-03 -0.99994324D-04 -0.63764547D-06
  0.00000000D+00 -0.00000000D+00 -0.14033873D-04 -0.00000000D+00 -0.00000000D+00
  0.29688112D-02  0.00000000D+00  0.00000000D+00  0.44709467D-02 -0.00000000D+00
 -0.00000000D+00  0.57989360D-07 -0.10963215D-07 -0.10963215D-07 -0.00000000D+00
  0.00000000D+00 -0.00000000D+00  0.33529510D-06  0.10472189D-05  0.10472189D-05
  0.00000000D+00  0.00000000D+00  0.00000000D+00
MO   13     MO 0.0        OCC NO =    0.0000000  ORB. ENERGY =    0.011757
  0.93457083D-04 -0.32944032D-02  0.32435427D-02 -0.14149008D-01  0.21339791D-01
 -0.42363452D-02  0.11452648D-01 -0.14524015D-01  0.11887066D-03 -0.71376974D-03
 -0.91050419D-06  0.00000000D+00  0.00000000D+00  0.46836742D-03 -0.00000000D+00
 -0.00000000D+00 -0.12013209D-03  0.00000000D+00  0.00000000D+00  0.12079641D-03
 -0.00000000D+00 -0.00000000D+00 -0.45063078D-08 -0.35479462D-08 -0.35479462D-08
  0.00000000D+00  0.00000000D+00  0.00000000D+00  0.18257396D-05 -0.18742853D-07
 -0.18742853D-07 -0.00000000D+00 -0.00000000D+00 -0.00000000D+00  0.93457083D-04
 -0.32944032D-02  0.32435427D-02 -0.14149008D-01  0.21339791D-01 -0.42363452D-02
  0.11452648D-01 -0.14524015D-01  0.11887066D-03 -0.71376974D-03  0.91050419D-06
 -0.00000000D+00 -0.00000000D+00 -0.46836742D-03  0.00000000D+00  0.00000000D+00
  0.12013209D-03 -0.00000000D+00 -0.00000000D+00 -0.12079641D-03  0.00000000D+00
  0.00000000D+00 -0.45063078D-08 -0.35479462D-08 -0.35479462D-08  0.00000000D+00
  0.00000000D+00 -0.00000000D+00  0.18257396D-05 -0.18742853D-07 -0.18742853D-07
 -0.00000000D+00 -0.00000000D+00  0.00000000D+00
MO   14     MO 0.0        OCC NO =    0.0000000  ORB. ENERGY =    0.014776
 -0.00000000D+00  0.00000000D+00  0.00000000D+00  0.00000000D+00 -0.00000000D+00
 -0.00000000D+00 -0.00000000D+00  0.00000000D+00  0.00000000D+00  0.00000000D+00
  0.00000000D+00  0.13004183D-04  0.15238914D-05 -0.00000000D+00  0.98061546D-03
  0.11491315D-03  0.00000000D+00 -0.71933890D-03 -0.84295526D-04 -0.00000000D+00
  0.16931046D-02  0.19840599D-03  0.00000000D+00 -0.00000000D+00 -0.00000000D+00
  0.26244136D-07  0.30754125D-08  0.00000000D+00 -0.00000000D+00 -0.00000000D+00
 -0.00000000D+00  0.36875954D-05  0.43212982D-06 -0.00000000D+00 -0.00000000D+00
 -0.00000000D+00 -0.00000000D+00 -0.00000000D+00  0.00000000D+00 -0.00000000D+00
  0.00000000D+00 -0.00000000D+00 -0.00000000D+00 -0.00000000D+00 -0.00000000D+00
 -0.13004183D-04 -0.15238914D-05  0.00000000D+00 -0.98061546D-03 -0.11491315D-03
  0.00000000D+00  0.71933890D-03  0.84295526D-04  0.00000000D+00 -0.16931046D-02
 -0.19840599D-03  0.00000000D+00  0.00000000D+00  0.00000000D+00  0.26244136D-07
  0.30754125D-08 -0.00000000D+00 -0.00000000D+00  0.00000000D+00  0.00000000D+00
  0.36875954D-05  0.43212982D-06  0.00000000D+00
MO   15     MO 0.0        OCC NO =    0.0000000  ORB. ENERGY =    0.014776
  0.00000000D+00  0.00000000D+00  0.00000000D+00  0.00000000D+00 -0.00000000D+00
  0.00000000D+00 -0.00000000D+00  0.00000000D+00  0.00000000D+00  0.00000000D+00
 -0.00000000D+00 -0.15238914D-05  0.13004183D-04  0.00000000D+00 -0.11491315D-03
  0.98061546D-03  0.00000000D+00  0.84295526D-04 -0.71933890D-03  0.00000000D+00
 -0.19840599D-03  0.16931046D-02 -0.00000000D+00 -0.00000000D+00 -0.00000000D+00
 -0.30754125D-08  0.26244136D-07  0.00000000D+00 -0.00000000D+00 -0.00000000D+00
 -0.00000000D+00 -0.43212982D-06  0.36875954D-05 -0.00000000D+00 -0.00000000D+00
 -0.00000000D+00 -0.00000000D+00 -0.00000000D+00  0.00000000D+00 -0.00000000D+00
  0.00000000D+00 -0.00000000D+00 -0.00000000D+00 -0.00000000D+00  0.00000000D+00
  0.15238914D-05 -0.13004183D-04  0.00000000D+00  0.11491315D-03 -0.98061546D-03
  0.00000000D+00 -0.84295526D-04  0.71933890D-03 -0.00000000D+00  0.19840599D-03
 -0.16931046D-02 -0.00000000D+00  0.00000000D+00  0.00000000D+00 -0.30754125D-08
  0.26244136D-07 -0.00000000D+00 -0.00000000D+00  0.00000000D+00  0.00000000D+00
 -0.43212982D-06  0.36875954D-05  0.00000000D+00
MO   16     MO 0.0        OCC NO =    0.0000000  ORB. ENERGY =    0.014833
 -0.80671203D-05 -0.10044730D-03 -0.11559454D+00 -0.24745661D-01  0.23857748D-01
 -0.25403171D-02  0.12712162D-01 -0.17218378D-01 -0.29670124D-03 -0.71079704D-03
  0.22499228D-05  0.00000000D+00 -0.00000000D+00  0.18299227D-04 -0.00000000D+00
 -0.00000000D+00 -0.16370058D-02 -0.00000000D+00 -0.00000000D+00  0.59525313D-04
  0.00000000D+00  0.00000000D+00  0.93662818D-07  0.53842048D-07  0.53842048D-07
  0.00000000D+00 -0.00000000D+00 -0.00000000D+00  0.11385131D-05  0.15176458D-05
  0.15176458D-05 -0.00000000D+00 -0.00000000D+00 -0.00000000D+00  0.80671203D-05
  0.10044728D-03  0.11559454D+00  0.24745661D-01 -0.23857748D-01  0.25403171D-02
 -0.12712162D-01  0.17218378D-01  0.29670124D-03  0.71079704D-03  0.22499228D-05
 -0.00000000D+00  0.00000000D+00  0.18299227D-04  0.00000000D+00  0.00000000D+00
 -0.16370058D-02  0.00000000D+00  0.00000000D+00  0.59525313D-04 -0.00000000D+00
 -0.00000000D+00 -0.93662818D-07 -0.53842048D-07 -0.53842048D-07  0.00000000D+00
 -0.00000000D+00  0.00000000D+00 -0.11385131D-05 -0.15176458D-05 -0.15176458D-05
 -0.00000000D+00 -0.00000000D+00  0.00000000D+00
MO   17     MO 0.0        OCC NO =    0.0000000  ORB. ENERGY =    0.014853
  0.44051982D-03  0.78710429D-02 -0.52810537D-02  0.65772863D-04  0.10972681D-01
 -0.21809072D-02  0.43415035D-02 -0.52358953D-02  0.23015570D-03 -0.31976155D-03
  0.37058455D-05 -0.00000000D+00 -0.00000000D+00 -0.94245410D-03  0.00000000D+00
 -0.00000000D+00  0.59143143D-03  0.00000000D+00 -0.00000000D+00 -0.13135951D-02
 -0.00000000D+00  0.00000000D+00 -0.12838696D-07 -0.13924405D-07 -0.13924405D-07
 -0.00000000D+00 -0.00000000D+00 -0.00000000D+00 -0.40809861D-05 -0.44793843D-06
 -0.44793843D-06  0.00000000D+00 -0.00000000D+00  0.00000000D+00  0.44051982D-03
  0.78710429D-02 -0.52810537D-02  0.65772863D-04  0.10972681D-01 -0.21809072D-02
  0.43415035D-02 -0.52358953D-02  0.23015570D-03 -0.31976155D-03 -0.37058455D-05
  0.00000000D+00  0.00000000D+00  0.94245410D-03 -0.00000000D+00  0.00000000D+00
 -0.59143143D-03 -0.00000000D+00  0.00000000D+00  0.13135951D-02  0.00000000D+00
 -0.00000000D+00 -0.12838696D-07 -0.13924405D-07 -0.13924405D-07 -0.00000000D+00
 -0.00000000D+00  0.00000000D+00 -0.40809861D-05 -0.44793843D-06 -0.44793843D-06
  0.00000000D+00 -0.00000000D+00 -0.00000000D+00
MO   18     MO 0.0        OCC NO =    0.0000000  ORB. ENERGY =    0.021773
 -0.20757119D-04 -0.26187155D-03 -0.43293891D+00  0.17555996D+00 -0.25711832D-01
  0.51499812D-02 -0.86883465D-02  0.10188408D-01 -0.57138343D-03  0.66374297D-03
  0.58941552D-05  0.00000000D+00 -0.00000000D+00  0.39235254D-04 -0.00000000D+00
 -0.00000000D+00 -0.55516188D-02  0.00000000D+00  0.00000000D+00  0.63744147D-02
 -0.00000000D+00  0.00000000D+00  0.25315636D-06  0.15165200D-06  0.15165200D-06
  0.00000000D+00 -0.00000000D+00 -0.00000000D+00  0.26810931D-05  0.36760200D-05
  0.36760200D-05 -0.00000000D+00 -0.00000000D+00  0.00000000D+00  0.20757119D-04
  0.26187155D-03  0.43293891D+00 -0.17555996D+00  0.25711832D-01 -0.51499812D-02
  0.86883465D-02 -0.10188408D-01  0.57138343D-03 -0.66374297D-03  0.58941552D-05
 -0.00000000D+00  0.00000000D+00  0.39235254D-04  0.00000000D+00  0.00000000D+00
 -0.55516188D-02 -0.00000000D+00 -0.00000000D+00  0.63744147D-02  0.00000000D+00
  0.00000000D+00 -0.25315636D-06 -0.15165200D-06 -0.15165200D-06  0.00000000D+00
 -0.00000000D+00  0.00000000D+00 -0.26810931D-05 -0.36760200D-05 -0.36760200D-05
 -0.00000000D+00 -0.00000000D+00 -0.00000000D+00
MO   19     MO 0.0        OCC NO =    0.0000000  ORB. ENERGY =    0.027091
  0.21435471D-02 -0.23014571D-02 -0.16049490D-01  0.17632344D-01 -0.11008367D-01
 -0.45102304D-02 -0.21568842D-02  0.56715262D-02  0.16086688D-02 -0.24910347D-03
  0.34089005D-05  0.00000000D+00 -0.00000000D+00  0.11479643D-02  0.00000000D+00
 -0.00000000D+00  0.35598874D-04 -0.00000000D+00  0.00000000D+00 -0.16170975D-03
  0.00000000D+00 -0.00000000D+00 -0.73091996D-07 -0.74769430D-07 -0.74769430D-07
  0.00000000D+00 -0.00000000D+00  0.00000000D+00  0.29350688D-05 -0.16593283D-05
 -0.16593283D-05  0.00000000D+00 -0.00000000D+00 -0.00000000D+00  0.21435471D-02
 -0.23014571D-02 -0.16049490D-01  0.17632344D-01 -0.11008367D-01 -0.45102304D-02
 -0.21568842D-02  0.56715262D-02  0.16086688D-02 -0.24910347D-03 -0.34089005D-05
 -0.00000000D+00  0.00000000D+00 -0.11479643D-02 -0.00000000D+00  0.00000000D+00
 -0.35598874D-04  0.00000000D+00 -0.00000000D+00  0.16170975D-03 -0.00000000D+00
  0.00000000D+00 -0.73091996D-07 -0.74769430D-07 -0.74769430D-07  0.00000000D+00
 -0.00000000D+00 -0.00000000D+00  0.29350688D-05 -0.16593283D-05 -0.16593283D-05
  0.00000000D+00 -0.00000000D+00 -0.00000000D+00
MO   20     MO 0.0        OCC NO =    0.0000000  ORB. ENERGY =    0.035725
 -0.11154182D-03 -0.24643450D-03 -0.85083023D-01  0.36167488D-01 -0.37964203D-02
  0.11741610D-01 -0.16413247D-02 -0.33325960D-02 -0.28572185D-02  0.75237942D-03
  0.30012902D-04  0.00000000D+00 -0.00000000D+00  0.32566535D-04  0.00000000D+00
 -0.00000000D+00 -0.15955176D-02 -0.00000000D+00  0.00000000D+00  0.20946961D-02
  0.00000000D+00 -0.00000000D+00  0.11532273D-05  0.11889397D-05  0.11889397D-05
  0.00000000D+00 -0.00000000D+00  0.00000000D+00  0.10417069D-04  0.10080778D-04
  0.10080778D-04  0.00000000D+00 -0.00000000D+00 -0.00000000D+00  0.11154182D-03
  0.24643450D-03  0.85083023D-01 -0.36167488D-01  0.37964203D-02 -0.11741610D-01
  0.16413247D-02  0.33325960D-02  0.28572185D-02 -0.75237942D-03  0.30012902D-04
 -0.00000000D+00  0.00000000D+00  0.32566535D-04 -0.00000000D+00  0.00000000D+00
 -0.15955176D-02  0.00000000D+00 -0.00000000D+00  0.20946961D-02 -0.00000000D+00
  0.00000000D+00 -0.11532273D-05 -0.11889397D-05 -0.11889397D-05  0.00000000D+00
 -0.00000000D+00 -0.00000000D+00 -0.10417069D-04 -0.10080778D-04 -0.10080778D-04
  0.00000000D+00 -0.00000000D+00  0.00000000D+00
MO   21     MO 0.0        OCC NO =    0.0000000  ORB. ENERGY =    0.037360
  0.00000000D+00 -0.00000000D+00  0.00000000D+00 -0.00000000D+00  0.00000000D+00
 -0.00000000D+00  0.00000000D+00  0.00000000D+00  0.00000000D+00 -0.00000000D+00
 -0.00000000D+00 -0.00000000D+00  0.00000000D+00  0.00000000D+00 -0.00000000D+00
  0.00000000D+00  0.00000000D+00 -0.00000000D+00 -0.00000000D+00 -0.00000000D+00
  0.00000000D+00  0.00000000D+00 -0.00000000D+00  0.15550657D-07 -0.15550657D-07
 -0.00000000D+00 -0.00000000D+00  0.82122192D-07 -0.00000000D+00 -0.21623776D-06
  0.21623776D-06 -0.00000000D+00  0.00000000D+00 -0.11419400D-05 -0.00000000D+00
 -0.00000000D+00 -0.00000000D+00  0.00000000D+00 -0.00000000D+00  0.00000000D+00
 -0.00000000D+00 -0.00000000D+00 -0.00000000D+00  0.00000000D+00 -0.00000000D+00
  0.00000000D+00 -0.00000000D+00 -0.00000000D+00  0.00000000D+00 -0.00000000D+00
  0.00000000D+00 -0.00000000D+00  0.00000000D+00 -0.00000000D+00  0.00000000D+00
 -0.00000000D+00  0.00000000D+00  0.15550657D-07 -0.15550657D-07  0.00000000D+00
  0.00000000D+00  0.82122192D-07  0.00000000D+00 -0.21623776D-06  0.21623776D-06
 -0.00000000D+00  0.00000000D+00 -0.11419400D-05
MO   22     MO 0.0        OCC NO =    0.0000000  ORB. ENERGY =    0.037360
  0.00000000D+00  0.00000000D+00  0.00000000D+00 -0.00000000D+00  0.00000000D+00
 -0.00000000D+00  0.00000000D+00  0.00000000D+00  0.00000000D+00 -0.00000000D+00
 -0.00000000D+00 -0.00000000D+00 -0.00000000D+00 -0.00000000D+00 -0.00000000D+00
 -0.00000000D+00  0.00000000D+00  0.00000000D+00 -0.00000000D+00 -0.00000000D+00
 -0.00000000D+00  0.00000000D+00 -0.00000000D+00  0.41061096D-07 -0.41061096D-07
 -0.00000000D+00 -0.00000000D+00 -0.31101315D-07 -0.00000000D+00 -0.57097001D-06
  0.57097001D-06 -0.00000000D+00 -0.00000000D+00  0.43247550D-06 -0.00000000D+00
 -0.00000000D+00 -0.00000000D+00  0.00000000D+00 -0.00000000D+00  0.00000000D+00
 -0.00000000D+00 -0.00000000D+00 -0.00000000D+00  0.00000000D+00 -0.00000000D+00
  0.00000000D+00  0.00000000D+00  0.00000000D+00  0.00000000D+00  0.00000000D+00
  0.00000000D+00 -0.00000000D+00  0.00000000D+00 -0.00000000D+00  0.00000000D+00
 -0.00000000D+00  0.00000000D+00  0.41061096D-07 -0.41061096D-07 -0.00000000D+00
 -0.00000000D+00 -0.31101315D-07  0.00000000D+00 -0.57097001D-06  0.57097001D-06
 -0.00000000D+00 -0.00000000D+00  0.43247550D-06
MO   23     MO 0.0        OCC NO =    0.0000000  ORB. ENERGY =    0.041614
 -0.00000000D+00 -0.00000000D+00 -0.00000000D+00  0.00000000D+00  0.00000000D+00
 -0.00000000D+00  0.00000000D+00  0.00000000D+00  0.00000000D+00 -0.00000000D+00
 -0.00000000D+00  0.25215520D-09  0.18113082D-05  0.00000000D+00 -0.70449287D-08
 -0.50614713D-04 -0.00000000D+00  0.27697177D-07  0.19899893D-03  0.00000000D+00
 -0.39662428D-07 -0.28495487D-03  0.00000000D+00  0.00000000D+00  0.00000000D+00
  0.10305436D-09  0.74042345D-06  0.00000000D+00  0.00000000D+00  0.00000000D+00
  0.00000000D+00 -0.49500785D-09 -0.35564643D-05 -0.00000000D+00 -0.00000000D+00
 -0.00000000D+00  0.00000000D+00 -0.00000000D+00 -0.00000000D+00  0.00000000D+00
  0.00000000D+00 -0.00000000D+00  0.00000000D+00 -0.00000000D+00  0.00000000D+00
  0.25215520D-09  0.18113082D-05 -0.00000000D+00 -0.70449287D-08 -0.50614714D-04
  0.00000000D+00  0.27697177D-07  0.19899893D-03 -0.00000000D+00 -0.39662428D-07
 -0.28495487D-03 -0.00000000D+00 -0.00000000D+00 -0.00000000D+00 -0.10305436D-09
 -0.74042345D-06 -0.00000000D+00  0.00000000D+00 -0.00000000D+00 -0.00000000D+00
  0.49500785D-09  0.35564643D-05  0.00000000D+00
MO   24     MO 0.0        OCC NO =    0.0000000  ORB. ENERGY =    0.041614
 -0.00000000D+00 -0.00000000D+00 -0.00000000D+00  0.00000000D+00 -0.00000000D+00
  0.00000000D+00 -0.00000000D+00  0.00000000D+00 -0.00000000D+00  0.00000000D+00
 -0.00000000D+00 -0.18113082D-05  0.25215520D-09  0.00000000D+00  0.50614714D-04
 -0.70449287D-08 -0.00000000D+00 -0.19899893D-03  0.27697177D-07  0.00000000D+00
  0.28495487D-03 -0.39662428D-07 -0.00000000D+00 -0.00000000D+00 -0.00000000D+00
 -0.74042345D-06  0.10305436D-09  0.00000000D+00  0.00000000D+00 -0.00000000D+00
  0.00000000D+00  0.35564643D-05 -0.49500785D-09 -0.00000000D+00 -0.00000000D+00
 -0.00000000D+00  0.00000000D+00 -0.00000000D+00  0.00000000D+00 -0.00000000D+00
  0.00000000D+00  0.00000000D+00  0.00000000D+00 -0.00000000D+00  0.00000000D+00
 -0.18113082D-05  0.25215520D-09 -0.00000000D+00  0.50614714D-04 -0.70449287D-08