[Molden Format]
[Title]
 Molden2AIM, Version 3.1.0 (02/25/2015)           Time: Thu Oct 17 19:54:46 2024

[Atoms] AU
E+       1       4     0.00000000     0.00000000     0.00000000
E+       2       4    37.20000000     0.00000000     0.00000000
[GTO]
    1 0
 S   1 1.0
    0.1000000000D-03      0.1000000000D+01
 S   1 1.0
    0.3000000000D-03      0.1000000000D+01
 S   1 1.0
    0.9000000000D-03      0.1000000000D+01
 S   1 1.0
    0.2700000000D-02      0.1000000000D+01
 S   1 1.0
    0.8100000000D-02      0.1000000000D+01
 S   1 1.0
    0.2430000000D-01      0.1000000000D+01
 S   1 1.0
    0.7290000000D-01      0.1000000000D+01
 S   1 1.0
    0.2187000000D+00      0.1000000000D+01
 S   1 1.0
    0.6561000000D+00      0.1000000000D+01
 S   1 1.0
    0.1968300000D+01      0.1000000000D+01
 P   1 1.0
    0.1000000000D-03      0.1000000000D+01
 P   1 1.0
    0.3000000000D-03      0.1000000000D+01
 P   1 1.0
    0.9000000000D-03      0.1000000000D+01
 P   1 1.0
    0.2700000000D-02      0.1000000000D+01
 D   1 1.0
    0.1000000000D-03      0.1000000000D+01
 D   1 1.0
    0.3000000000D-03      0.1000000000D+01

    2 0
 S   1 1.0
    0.1000000000D-03      0.1000000000D+01
 S   1 1.0
    0.3000000000D-03      0.1000000000D+01
 S   1 1.0
    0.9000000000D-03      0.1000000000D+01
 S   1 1.0
    0.2700000000D-02      0.1000000000D+01
 S   1 1.0
    0.8100000000D-02      0.1000000000D+01
 S   1 1.0
    0.2430000000D-01      0.1000000000D+01
 S   1 1.0
    0.7290000000D-01      0.1000000000D+01
 S   1 1.0
    0.2187000000D+00      0.1000000000D+01
 S   1 1.0
    0.6561000000D+00      0.1000000000D+01
 S   1 1.0
    0.1968300000D+01      0.1000000000D+01
 P   1 1.0
    0.1000000000D-03      0.1000000000D+01
 P   1 1.0
    0.3000000000D-03      0.1000000000D+01
 P   1 1.0
    0.9000000000D-03      0.1000000000D+01
 P   1 1.0
    0.2700000000D-02      0.1000000000D+01
 D   1 1.0
    0.1000000000D-03      0.1000000000D+01
 D   1 1.0
    0.3000000000D-03      0.1000000000D+01


[MO]
 Ene=         -0.00389205
 Spin= Alpha
 Occup=        1.00000000
    1        0.0474543400
    2       -0.0369389900
    3       -0.0100816300
    4       -0.2026234800
    5       -0.2962452500
    6       -0.1966679000
    7       -0.1221433300
    8        0.0986641000
    9        0.0067409200
   10       -0.0000935000
   11       -0.1534205600
   12       -0.0000000000
   13        0.0000000000
   14        0.0517045500
   15       -0.0000000000
   16       -0.0000000000
   17       -0.0383299800
   18        0.0000000000
   19       -0.0000000000
   20       -0.0148605800
   21       -0.0000000000
   22        0.0000000000
   23       -0.0492084400
   24        0.0014587400
   25        0.0014587400
   26       -0.0000000000
   27        0.0000000000
   28        0.0000000000
   29        0.0280500900
   30        0.0059339700
   31        0.0059339700
   32       -0.0000000000
   33       -0.0000000000
   34        0.0000000000
   35        0.0474543400
   36       -0.0369389900
   37       -0.0100816300
   38       -0.2026234800
   39       -0.2962452500
   40       -0.1966679000
   41       -0.1221433300
   42        0.0986641000
   43        0.0067409200
   44       -0.0000935000
   45        0.1534205600
   46        0.0000000000
   47       -0.0000000000
   48       -0.0517045500
   49        0.0000000000
   50        0.0000000000
   51        0.0383299800
   52        0.0000000000
   53        0.0000000000
   54        0.0148605800
   55       -0.0000000000
   56       -0.0000000000
   57       -0.0492084400
   58        0.0014587400
   59        0.0014587400
   60       -0.0000000000
   61        0.0000000000
   62       -0.0000000000
   63        0.0280500900
   64        0.0059339700
   65        0.0059339700
   66       -0.0000000000
   67       -0.0000000000
   68        0.0000000000
 Ene=         -0.00354870
 Spin= Alpha
 Occup=        0.00000000
    1        0.0009777500
    2        0.0045717700
    3        0.0154416400
    4        0.2707047700
    5        0.2848350800
    6        0.2149577800
    7        0.1240650000
    8       -0.1018195700
    9       -0.0072514000
   10        0.0001383800
   11       -0.0044611400
   12        0.0000000000
   13       -0.0000000000
   14       -0.0105653400
   15       -0.0000000000
   16       -0.0000000000
   17        0.0349610500
   18        0.0000000000
   19        0.0000000000
   20        0.0424217400
   21       -0.0000000000
   22        0.0000000000
   23       -0.0070397600
   24       -0.0024214000
   25       -0.0024214000
   26        0.0000000000
   27       -0.0000000000
   28        0.0000000000
   29       -0.0120066900
   30       -0.0165620800
   31       -0.0165620800
   32       -0.0000000000
   33        0.0000000000
   34       -0.0000000000
   35       -0.0009777500
   36       -0.0045717700
   37       -0.0154416400
   38       -0.2707047700
   39       -0.2848350800
   40       -0.2149577800
   41       -0.1240650000
   42        0.1018195700
   43        0.0072514000
   44       -0.0001383800
   45       -0.0044611400
   46       -0.0000000000
   47        0.0000000000
   48       -0.0105653400
   49        0.0000000000
   50        0.0000000000
   51        0.0349610500
   52       -0.0000000000
   53       -0.0000000000
   54        0.0424217400
   55        0.0000000000
   56        0.0000000000
   57        0.0070397600
   58        0.0024214000
   59        0.0024214000
   60        0.0000000000
   61       -0.0000000000
   62       -0.0000000000
   63        0.0120066900
   64        0.0165620800
   65        0.0165620800
   66       -0.0000000000
   67       -0.0000000000
   68       -0.0000000000
 Ene=          0.00419675
 Spin= Alpha
 Occup=        0.00000000
    1       -0.6804959300
    2       -0.0666852600
    3        1.0229156000
    4       -0.6690187200
    5       -0.0577135500
    6       -0.1126134000
    7       -0.0371116500
    8        0.0352326400
    9        0.0033678600
   10       -0.0001665400
   11        1.3521318200
   12       -0.0000000000
   13       -0.0000000000
   14       -0.4247211900
   15        0.0000000000
   16        0.0000000000
   17        0.4748629700
   18       -0.0000000000
   19       -0.0000000000
   20       -0.0464686900
   21        0.0000000000
   22        0.0000000000
   23        0.4667032100
   24        0.0256735300
   25        0.0256735300
   26       -0.0000000000
   27       -0.0000000000
   28        0.0000000000
   29       -0.0698498500
   30        0.0880356100
   31        0.0880356100
   32       -0.0000000000
   33        0.0000000000
   34       -0.0000000000
   35       -0.6804959300
   36       -0.0666852600
   37        1.0229156000
   38       -0.6690187200
   39       -0.0577135500
   40       -0.1126134000
   41       -0.0371116500
   42        0.0352326400
   43        0.0033678600
   44       -0.0001665400
   45       -1.3521318200
   46        0.0000000000
   47        0.0000000000
   48        0.4247211900
   49       -0.0000000000
   50       -0.0000000000
   51       -0.4748629700
   52        0.0000000000
   53        0.0000000000
   54        0.0464686900
   55       -0.0000000000
   56       -0.0000000000
   57        0.4667032100
   58        0.0256735300
   59        0.0256735300
   60        0.0000000000
   61       -0.0000000000
   62       -0.0000000000
   63       -0.0698498500
   64        0.0880356100
   65        0.0880356100
   66        0.0000000000
   67        0.0000000000
   68        0.0000000000
 Ene=          0.00618298
 Spin= Alpha
 Occup=        0.00000000
    1        0.0000000000
    2       -0.0000000000
    3       -0.0000000000
    4        0.0000000000
    5       -0.0000000000
    6       -0.0000000000
    7        0.0000000000
    8       -0.0000000000
    9        0.0000000000
   10        0.0000000000
   11       -0.0000000000
   12        0.0270760000
   13        0.0039174000
   14        0.0000000000
   15       -0.0836320900
   16       -0.0121000300
   17       -0.0000000000
   18        0.2906395400
   19        0.0420502100
   20        0.0000000000
   21        0.4046576100
   22        0.0585465300
   23       -0.0000000000
   24        0.0000000000
   25       -0.0000000000
   26       -0.0094008200
   27       -0.0013601300
   28       -0.0000000000
   29        0.0000000000
   30        0.0000000000
   31        0.0000000000
   32        0.0345280700
   33        0.0049955800
   34       -0.0000000000
   35        0.0000000000
   36       -0.0000000000
   37        0.0000000000
   38       -0.0000000000
   39        0.0000000000
   40        0.0000000000
   41        0.0000000000
   42       -0.0000000000
   43        0.0000000000
   44        0.0000000000
   45        0.0000000000
   46        0.0270760000
   47        0.0039174000
   48       -0.0000000000
   49       -0.0836320900
   50       -0.0121000300
   51       -0.0000000000
   52        0.2906395400
   53        0.0420502100
   54       -0.0000000000
   55        0.4046576100
   56        0.0585465300
   57       -0.0000000000
   58       -0.0000000000
   59        0.0000000000
   60        0.0094008200
   61        0.0013601300
   62        0.0000000000
   63        0.0000000000
   64       -0.0000000000
   65       -0.0000000000
   66       -0.0345280700
   67       -0.0049955800
   68       -0.0000000000
 Ene=          0.00618298
 Spin= Alpha
 Occup=        0.00000000
    1       -0.0000000000
    2        0.0000000000
    3       -0.0000000000
    4        0.0000000000
    5       -0.0000000000
    6        0.0000000000
    7       -0.0000000000
    8        0.0000000000
    9        0.0000000000
   10       -0.0000000000
   11        0.0000000000
   12       -0.0039174000
   13        0.0270760000
   14       -0.0000000000
   15        0.0121000300
   16       -0.0836320900
   17        0.0000000000
   18       -0.0420502100
   19        0.2906395400
   20        0.0000000000
   21       -0.0585465300
   22        0.4046576100
   23        0.0000000000
   24       -0.0000000000
   25        0.0000000000
   26        0.0013601300
   27       -0.0094008200
   28       -0.0000000000
   29       -0.0000000000
   30       -0.0000000000
   31       -0.0000000000
   32       -0.0049955800
   33        0.0345280700
   34        0.0000000000
   35       -0.0000000000
   36        0.0000000000
   37        0.0000000000
   38        0.0000000000
   39       -0.0000000000
   40       -0.0000000000
   41        0.0000000000
   42       -0.0000000000
   43        0.0000000000
   44        0.0000000000
   45       -0.0000000000
   46       -0.0039174000
   47        0.0270760000
   48        0.0000000000
   49        0.0121000300
   50       -0.0836320900
   51       -0.0000000000
   52       -0.0420502100
   53        0.2906395400
   54        0.0000000000
   55       -0.0585465300
   56        0.4046576100
   57        0.0000000000
   58       -0.0000000000
   59       -0.0000000000
   60       -0.0013601300
   61        0.0094008200
   62        0.0000000000
   63       -0.0000000000
   64       -0.0000000000
   65       -0.0000000000
   66        0.0049955800
   67       -0.0345280700
   68       -0.0000000000
 Ene=          0.00855827
 Spin= Alpha
 Occup=        0.00000000
    1       -0.0000000000
    2       -0.0000000000
    3        0.0000000000
    4       -0.0000000000
    5       -0.0000000000
    6        0.0000000000
    7       -0.0000000000
    8        0.0000000000
    9       -0.0000000000
   10        0.0000000000
   11       -0.0000000000
   12        0.2729494600
   13       -0.0489455800
   14       -0.0000000000
   15        0.0062074300
   16       -0.0011131200
   17        0.0000000000
   18        0.0702749400
   19       -0.0126017700
   20        0.0000000000
   21        0.7239658700
   22       -0.1298223100
   23       -0.0000000000
   24       -0.0000000000
   25       -0.0000000000
   26        0.0478988700
   27       -0.0085892700
   28        0.0000000000
   29       -0.0000000000
   30       -0.0000000000
   31       -0.0000000000
   32        0.0150468000
   33       -0.0026982100
   34       -0.0000000000
   35        0.0000000000
   36        0.0000000000
   37       -0.0000000000
   38       -0.0000000000
   39        0.0000000000
   40        0.0000000000
   41        0.0000000000
   42        0.0000000000
   43       -0.0000000000
   44        0.0000000000
   45        0.0000000000
   46       -0.2729494600
   47        0.0489455800
   48       -0.0000000000
   49       -0.0062074300
   50        0.0011131200
   51        0.0000000000
   52       -0.0702749400
   53        0.0126017700
   54        0.0000000000
   55       -0.7239658700
   56        0.1298223100
   57       -0.0000000000
   58        0.0000000000
   59        0.0000000000
   60        0.0478988700
   61       -0.0085892700
   62       -0.0000000000
   63        0.0000000000
   64       -0.0000000000
   65       -0.0000000000
   66        0.0150468000
   67       -0.0026982100
   68        0.0000000000
 Ene=          0.00855827
 Spin= Alpha
 Occup=        0.00000000
    1        0.0000000000
    2       -0.0000000000
    3        0.0000000000
    4        0.0000000000
    5       -0.0000000000
    6        0.0000000000
    7       -0.0000000000
    8        0.0000000000
    9        0.0000000000
   10       -0.0000000000
   11        0.0000000000
   12        0.0489455800
   13        0.2729494600
   14       -0.0000000000
   15        0.0011131200
   16        0.0062074300
   17        0.0000000000
   18        0.0126017700
   19        0.0702749400
   20        0.0000000000
   21        0.1298223100
   22        0.7239658700
   23        0.0000000000
   24       -0.0000000000
   25       -0.0000000000
   26        0.0085892700
   27        0.0478988700
   28       -0.0000000000
   29       -0.0000000000
   30       -0.0000000000
   31       -0.0000000000
   32        0.0026982100
   33        0.0150468000
   34        0.0000000000
   35       -0.0000000000
   36        0.0000000000
   37       -0.0000000000
   38        0.0000000000
   39        0.0000000000
   40       -0.0000000000
   41        0.0000000000
   42       -0.0000000000
   43       -0.0000000000
   44        0.0000000000
   45        0.0000000000
   46       -0.0489455800
   47       -0.2729494600
   48       -0.0000000000
   49       -0.0011131200
   50       -0.0062074300
   51        0.0000000000
   52       -0.0126017700
   53       -0.0702749400
   54       -0.0000000000
   55       -0.1298223100
   56       -0.7239658700
   57       -0.0000000000
   58        0.0000000000
   59        0.0000000000
   60        0.0085892700
   61        0.0478988700
   62        0.0000000000
   63        0.0000000000
   64        0.0000000000
   65        0.0000000000
   66        0.0026982100
   67        0.0150468000
   68       -0.0000000000
 Ene=          0.00936233
 Spin= Alpha
 Occup=        0.00000000
    1        0.0285134900
    2       -0.0026958600
    3       -2.5758231800
    4       -0.1886686700
    5        0.5664819600
    6        0.0198684000
    7        0.0807086800
    8       -0.0531473100
    9       -0.0016583800
   10       -0.0002407200
   11       -0.1393885800
   12       -0.0000000000
   13        0.0000000000
   14        0.0250732100
   15        0.0000000000
   16       -0.0000000000
   17       -0.9923517100
   18       -0.0000000000
   19        0.0000000000
   20       -0.3276308500
   21        0.0000000000
   22       -0.0000000000
   23       -0.1055202900
   24       -0.1818435200
   25       -0.1818435200
   26       -0.0000000000
   27        0.0000000000
   28        0.0000000000
   29       -0.2625724500
   30       -0.1209573500
   31       -0.1209573500
   32        0.0000000000
   33       -0.0000000000
   34       -0.0000000000
   35       -0.0285134900
   36        0.0026958600
   37        2.5758231800
   38        0.1886686700
   39       -0.5664819600
   40       -0.0198684000
   41       -0.0807086800
   42        0.0531473100
   43        0.0016583800
   44        0.0002407200
   45       -0.1393885800
   46        0.0000000000
   47       -0.0000000000
   48        0.0250732100
   49       -0.0000000000
   50        0.0000000000
   51       -0.9923517100
   52        0.0000000000
   53       -0.0000000000
   54       -0.3276308500
   55       -0.0000000000
   56       -0.0000000000
   57        0.1055202900
   58        0.1818435200
   59        0.1818435200
   60       -0.0000000000
   61        0.0000000000
   62       -0.0000000000
   63        0.2625724500
   64        0.1209573500
   65        0.1209573500
   66       -0.0000000000
   67       -0.0000000000
   68        0.0000000000
 Ene=          0.00971145
 Spin= Alpha
 Occup=        0.00000000
    1       -0.3850584900
    2        0.2791036400
    3        0.4684138200
    4       -0.9969573000
    5        0.5187430500
    6       -0.0525440900
    7        0.0594555400
    8       -0.0323145900
    9        0.0004245700
   10       -0.0003503900
   11        1.4481179100
   12       -0.0000000000
   13       -0.0000000000
   14       -0.3959773700
   15        0.0000000000
   16        0.0000000000
   17        0.5147068100
   18       -0.0000000000
   19       -0.0000000000
   20       -0.7262625000
   21        0.0000000000
   22        0.0000000000
   23        0.4522329800
   24       -0.0227806800
   25       -0.0227806800
   26       -0.0000000000
   27       -0.0000000000
   28        0.0000000000
   29       -0.2222731800
   30       -0.0783251700
   31       -0.0783251700
   32        0.0000000000
   33        0.0000000000
   34        0.0000000000
   35       -0.3850584900
   36        0.2791036400
   37        0.4684138200
   38       -0.9969573000
   39        0.5187430500
   40       -0.0525440900
   41        0.0594555400
   42       -0.0323145900
   43        0.0004245700
   44       -0.0003503900
   45       -1.4481179100
   46        0.0000000000
   47        0.0000000000
   48        0.3959773700
   49       -0.0000000000
   50       -0.0000000000
   51       -0.5147068100
   52        0.0000000000
   53       -0.0000000000
   54        0.7262625000
   55       -0.0000000000
   56       -0.0000000000
   57        0.4522329800
   58       -0.0227806800
   59       -0.0227806800
   60       -0.0000000000
   61       -0.0000000000
   62       -0.0000000000
   63       -0.2222731800
   64       -0.0783251700
   65       -0.0783251700
   66        0.0000000000
   67        0.0000000000
   68       -0.0000000000
 Ene=          0.01339830
 Spin= Alpha
 Occup=        0.00000000
    1        0.0000000000
    2       -0.0000000000
    3        0.0000000000
    4       -0.0000000000
    5        0.0000000000
    6       -0.0000000000
    7        0.0000000000
    8       -0.0000000000
    9        0.0000000000
   10       -0.0000000000
   11       -0.0000000000
   12       -0.0677036000
   13       -0.0184129000
   14        0.0000000000
   15        0.2221505200
   16        0.0604168000
   17       -0.0000000000
   18       -0.9425821300
   19       -0.2563477800
   20       -0.0000000000
   21        0.9038305200
   22        0.2458087600
   23       -0.0000000000
   24        0.0000000000
   25        0.0000000000
   26        0.0136307600
   27        0.0037070700
   28        0.0000000000
   29        0.0000000000
   30        0.0000000000
   31        0.0000000000
   32       -0.0741279500
   33       -0.0201600800
   34        0.0000000000
   35        0.0000000000
   36       -0.0000000000
   37        0.0000000000
   38        0.0000000000
   39       -0.0000000000
   40       -0.0000000000
   41       -0.0000000000
   42        0.0000000000
   43       -0.0000000000
   44        0.0000000000
   45        0.0000000000
   46       -0.0677036000
   47       -0.0184129000
   48       -0.0000000000
   49        0.2221505200
   50        0.0604168000
   51        0.0000000000
   52       -0.9425821300
   53       -0.2563477800
   54       -0.0000000000
   55        0.9038305200
   56        0.2458087600
   57       -0.0000000000
   58        0.0000000000
   59        0.0000000000
   60       -0.0136307600
   61       -0.0037070700
   62       -0.0000000000
   63        0.0000000000
   64        0.0000000000
   65        0.0000000000
   66        0.0741279500
   67        0.0201600800
   68        0.0000000000
 Ene=          0.01339830
 Spin= Alpha
 Occup=        0.00000000
    1        0.0000000000
    2        0.0000000000
    3        0.0000000000
    4       -0.0000000000
    5        0.0000000000
    6        0.0000000000
    7        0.0000000000
    8       -0.0000000000
    9        0.0000000000
   10        0.0000000000
   11       -0.0000000000
   12        0.0184129000
   13       -0.0677036000
   14       -0.0000000000
   15       -0.0604168000
   16        0.2221505200
   17        0.0000000000
   18        0.2563477800
   19       -0.9425821300
   20        0.0000000000
   21       -0.2458087600
   22        0.9038305200
   23       -0.0000000000
   24        0.0000000000
   25       -0.0000000000
   26       -0.0037070700
   27        0.0136307600
   28        0.0000000000
   29       -0.0000000000
   30        0.0000000000
   31        0.0000000000
   32        0.0201600800
   33       -0.0741279500
   34       -0.0000000000
   35        0.0000000000
   36        0.0000000000
   37        0.0000000000
   38       -0.0000000000
   39        0.0000000000
   40        0.0000000000
   41        0.0000000000
   42       -0.0000000000
   43       -0.0000000000
   44       -0.0000000000
   45        0.0000000000
   46        0.0184129000
   47       -0.0677036000
   48        0.0000000000
   49       -0.0604168000
   50        0.2221505200
   51       -0.0000000000
   52        0.2563477800
   53       -0.9425821300
   54       -0.0000000000
   55       -0.2458087600
   56        0.9038305200
   57       -0.0000000000
   58        0.0000000000
   59        0.0000000000
   60        0.0037070700
   61       -0.0136307600
   62       -0.0000000000
   63       -0.0000000000
   64        0.0000000000
   65        0.0000000000
   66       -0.0201600800
   67        0.0741279500
   68        0.0000000000
 Ene=          0.01369920
 Spin= Alpha
 Occup=        0.00000000
    1       -0.2004662400
    2        0.1277331400
    3        0.2997357700
    4       -1.5112781300
    5        0.9026784700
    6        0.0066715200
    7        0.0995967700
    8       -0.0638203700
    9       -0.0016939100
   10       -0.0003342400
   11        0.8754146000
   12       -0.0000000000
   13       -0.0000000000
   14       -0.1303630600
   15        0.0000000000
   16       -0.0000000000
   17        0.3353818200
   18       -0.0000000000
   19        0.0000000000
   20        0.1722371900
   21        0.0000000000
   22       -0.0000000000
   23        0.2652805800
   24       -0.0175038600
   25       -0.0175038600
   26       -0.0000000000
   27       -0.0000000000
   28        0.0000000000
   29       -0.0798577300
   30       -0.0646997300
   31       -0.0646997300
   32        0.0000000000
   33       -0.0000000000
   34        0.0000000000
   35       -0.2004662400
   36        0.1277331400
   37        0.2997357700
   38       -1.5112781300
   39        0.9026784700
   40        0.0066715200
   41        0.0995967700
   42       -0.0638203700
   43       -0.0016939100
   44       -0.0003342400
   45       -0.8754146000
   46        0.0000000000
   47        0.0000000000
   48        0.1303630600
   49       -0.0000000000
   50        0.0000000000
   51       -0.3353818200
   52       -0.0000000000
   53        0.0000000000
   54       -0.1722371900
   55        0.0000000000
   56       -0.0000000000
   57        0.2652805800
   58       -0.0175038600
   59       -0.0175038600
   60       -0.0000000000
   61       -0.0000000000
   62       -0.0000000000
   63       -0.0798577300
   64       -0.0646997300
   65       -0.0646997300
   66        0.0000000000
   67       -0.0000000000
   68       -0.0000000000
 Ene=          0.01427240
 Spin= Alpha
 Occup=        0.00000000
    1        0.0140622200
    2        0.0355630100
    3       -0.1792775400
    4       -0.1177543200
    5        0.0588538500
    6       -0.0724530600
    7       -0.0005570300
    8        0.0076053700
    9        0.0017415800
   10       -0.0001785000
   11       -0.0659866900
   12       -0.0000000000
   13        0.0000000000
   14       -0.0697811000
   15        0.0000000000
   16        0.0000000000
   17        0.1483740800
   18        0.0000000000
   19        0.0000000000
   20       -1.0699832900
   21       -0.0000000000
   22       -0.0000000000
   23       -0.0809884500
   24       -0.0608031700
   25       -0.0608031700
   26       -0.0000000000
   27        0.0000000000
   28        0.0000000000
   29       -0.1450262200
   30       -0.1522394200
   31       -0.1522394200
   32        0.0000000000
   33       -0.0000000000
   34       -0.0000000000
   35       -0.0140622200
   36       -0.0355630100
   37        0.1792775400
   38        0.1177543200
   39       -0.0588538500
   40        0.0724530600
   41        0.0005570300
   42       -0.0076053700
   43       -0.0017415800
   44        0.0001785000
   45       -0.0659866900
   46        0.0000000000
   47       -0.0000000000
   48       -0.0697811000
   49       -0.0000000000
   50       -0.0000000000
   51        0.1483740800
   52        0.0000000000
   53        0.0000000000
   54       -1.0699832900
   55       -0.0000000000
   56       -0.0000000000
   57        0.0809884500
   58        0.0608031700
   59        0.0608031700
   60       -0.0000000000
   61        0.0000000000
   62       -0.0000000000
   63        0.1450262200
   64        0.1522394200
   65        0.1522394200
   66        0.0000000000
   67        0.0000000000
   68       -0.0000000000
 Ene=          0.01806030
 Spin= Alpha
 Occup=        0.00000000
    1       -0.0172022600
    2        0.0528579600
    3        4.5805208800
    4       -2.7936665300
    5        1.2245313100
    6       -0.0562469500
    7        0.1098215800
    8       -0.0640102600
    9       -0.0004187200
   10       -0.0005193300
   11        0.0886145800
   12        0.0000000000
   13       -0.0000000000
   14       -0.0992877800
   15       -0.0000000000
   16        0.0000000000
   17        1.9427465100
   18        0.0000000000
   19       -0.0000000000
   20       -0.2456015200
   21       -0.0000000000
   22        0.0000000000
   23        0.0208188600
   24        0.1505050200
   25        0.1505050200
   26        0.0000000000
   27       -0.0000000000
   28        0.0000000000
   29        0.1629691900
   30       -0.0424300400
   31       -0.0424300400
   32       -0.0000000000
   33        0.0000000000
   34        0.0000000000
   35        0.0172022600
   36       -0.0528579600
   37       -4.5805208800
   38        2.7936665300
   39       -1.2245313100
   40        0.0562469500
   41       -0.1098215800
   42        0.0640102600
   43        0.0004187200
   44        0.0005193300
   45        0.0886145800
   46       -0.0000000000
   47        0.0000000000
   48       -0.0992877800
   49        0.0000000000
   50       -0.0000000000
   51        1.9427465100
   52       -0.0000000000
   53        0.0000000000
   54       -0.2456015200
   55        0.0000000000
   56       -0.0000000000
   57       -0.0208188600
   58       -0.1505050200
   59       -0.1505050200
   60        0.0000000000
   61       -0.0000000000
   62       -0.0000000000
   63       -0.1629691900
   64        0.0424300400
   65        0.0424300400
   66       -0.0000000000
   67        0.0000000000
   68        0.0000000000
 Ene=          0.01975130
 Spin= Alpha
 Occup=        0.00000000
    1        0.0000000000
    2       -0.0000000000
    3        0.0000000000
    4       -0.0000000000
    5        0.0000000000
    6        0.0000000000
    7        0.0000000000
    8       -0.0000000000
    9       -0.0000000000
   10        0.0000000000
   11        0.0000000000
   12       -5.7620744300
   13        4.4873173500
   14       -0.0000000000
   15        1.2718724100
   16       -0.9904931300
   17        0.0000000000
   18       -1.3774765100
   19        1.0727341900
   20       -0.0000000000
   21        0.6564550900
   22       -0.5112260100
   23        0.0000000000
   24       -0.0000000000
   25       -0.0000000000
   26       -1.0563545800
   27        0.8226548100
   28       -0.0000000000
   29       -0.0000000000
   30       -0.0000000000
   31       -0.0000000000
   32        0.2537352400
   33       -0.1976008000
   34        0.0000000000
   35       -0.0000000000
   36        0.0000000000
   37       -0.0000000000
   38        0.0000000000
   39       -0.0000000000
   40        0.0000000000
   41       -0.0000000000
   42        0.0000000000
   43       -0.0000000000
   44        0.0000000000
   45       -0.0000000000
   46        5.7620744300
   47       -4.4873173500
   48       -0.0000000000
   49       -1.2718724100
   50        0.9904931300
   51       -0.0000000000
   52        1.3774765100
   53       -1.0727341900
   54        0.0000000000
   55       -0.6564550900
   56        0.5112260100
   57        0.0000000000
   58        0.0000000000
   59       -0.0000000000
   60       -1.0563545800
   61        0.8226548100
   62        0.0000000000
   63        0.0000000000
   64       -0.0000000000
   65       -0.0000000000
   66        0.2537352400
   67       -0.1976008000
   68       -0.0000000000
 Ene=          0.01975130
 Spin= Alpha
 Occup=        0.00000000
    1       -0.0000000000
    2        0.0000000000
    3       -0.0000000000
    4        0.0000000000
    5       -0.0000000000
    6        0.0000000000
    7       -0.0000000000
    8        0.0000000000
    9       -0.0000000000
   10        0.0000000000
   11        0.0000000000
   12       -4.4873173500
   13       -5.7620744300
   14        0.0000000000
   15        0.9904931300
   16        1.2718724100