[Molden Format]
[Atoms] AU
E+       1       4     0.00000000     0.00000000     0.00000000
E+       2       4    51.00000000     0.00000000     0.00000000
[GTO]
  1 0
s  1 1.00
   1.0000000000E-04   1.0000000000E+00
s  1 1.00
   3.0000000000E-04   1.0000000000E+00
s  1 1.00
   9.0000000000E-04   1.0000000000E+00
s  1 1.00
   2.7000000000E-03   1.0000000000E+00
s  1 1.00
   8.1000000000E-03   1.0000000000E+00
s  1 1.00
   2.4300000000E-02   1.0000000000E+00
s  1 1.00
   7.2900000000E-02   1.0000000000E+00
s  1 1.00
   2.1870000000E-01   1.0000000000E+00
s  1 1.00
   6.5610000000E-01   1.0000000000E+00
s  1 1.00
   1.9683000000E+00   1.0000000000E+00
p  1 1.00
   1.0000000000E-04   1.0000000000E+00
p  1 1.00
   3.0000000000E-04   1.0000000000E+00
p  1 1.00
   9.0000000000E-04   1.0000000000E+00
p  1 1.00
   2.7000000000E-03   1.0000000000E+00
d  1 1.00
   1.0000000000E-04   1.0000000000E+00
d  1 1.00
   3.0000000000E-04   1.0000000000E+00
 
  2 0
s  1 1.00
   1.0000000000E-04   1.0000000000E+00
s  1 1.00
   3.0000000000E-04   1.0000000000E+00
s  1 1.00
   9.0000000000E-04   1.0000000000E+00
s  1 1.00
   2.7000000000E-03   1.0000000000E+00
s  1 1.00
   8.1000000000E-03   1.0000000000E+00
s  1 1.00
   2.4300000000E-02   1.0000000000E+00
s  1 1.00
   7.2900000000E-02   1.0000000000E+00
s  1 1.00
   2.1870000000E-01   1.0000000000E+00
s  1 1.00
   6.5610000000E-01   1.0000000000E+00
s  1 1.00
   1.9683000000E+00   1.0000000000E+00
p  1 1.00
   1.0000000000E-04   1.0000000000E+00
p  1 1.00
   3.0000000000E-04   1.0000000000E+00
p  1 1.00
   9.0000000000E-04   1.0000000000E+00
p  1 1.00
   2.7000000000E-03   1.0000000000E+00
d  1 1.00
   1.0000000000E-04   1.0000000000E+00
d  1 1.00
   3.0000000000E-04   1.0000000000E+00
 
 
[MO]
Ene=     8.70362E-04
Spin= Alpha
Occup=   1.0000000000
   1      -0.11088890
   2      -0.10143659
   3       0.22091414
   4       0.20310505
   5       0.19502264
   6       0.16589247
   7       0.09840848
   8      -0.08038466
   9      -0.00563034
  10       0.00009755
  11       0.07583513
  12      -0.00000000
  13      -0.00000000
  14      -0.01592443
  15      -0.00000000
  16       0.00000000
  17       0.04011438
  18       0.00000000
  19      -0.00000000
  20       0.19675086
  21      -0.00000000
  22       0.00000000
  23       0.04200051
  24       0.01078032
  25       0.01078032
  26      -0.00000000
  27      -0.00000000
  28      -0.00000000
  29       0.04499081
  30       0.03792870
  31       0.03792870
  32      -0.00000000
  33       0.00000000
  34       0.00000000
  35      -0.11088890
  36      -0.10143659
  37       0.22091414
  38       0.20310505
  39       0.19502264
  40       0.16589247
  41       0.09840848
  42      -0.08038466
  43      -0.00563034
  44       0.00009755
  45      -0.07583513
  46       0.00000000
  47       0.00000000
  48       0.01592443
  49       0.00000000
  50      -0.00000000
  51      -0.04011438
  52      -0.00000000
  53       0.00000000
  54      -0.19675086
  55       0.00000000
  56       0.00000000
  57       0.04200051
  58       0.01078032
  59       0.01078032
  60       0.00000000
  61      -0.00000000
  62       0.00000000
  63       0.04499081
  64       0.03792870
  65       0.03792870
  66      -0.00000000
  67       0.00000000
  68      -0.00000000
Ene=     1.41393E-03
Spin= Alpha
Occup=   0.0000000000
   1      -0.02160813
   2       1.38599976
   3      -0.00602234
   4       0.34416734
   5       0.20044884
   6       0.20196093
   7       0.10926855
   8      -0.09114685
   9      -0.00673195
  10       0.00015993
  11       0.02343131
  12      -0.00000000
  13      -0.00000000
  14       0.75089621
  15       0.00000000
  16       0.00000000
  17      -0.11304131
  18      -0.00000000
  19      -0.00000000
  20       0.23026075
  21       0.00000000
  22       0.00000000
  23       0.02030272
  24       0.01798305
  25       0.01798305
  26       0.00000000
  27      -0.00000000
  28      -0.00000000
  29       0.24380650
  30       0.04823353
  31       0.04823353
  32       0.00000000
  33       0.00000000
  34       0.00000000
  35       0.02160813
  36      -1.38599976
  37       0.00602234
  38      -0.34416734
  39      -0.20044884
  40      -0.20196093
  41      -0.10926855
  42       0.09114685
  43       0.00673195
  44      -0.00015993
  45       0.02343131
  46       0.00000000
  47       0.00000000
  48       0.75089621
  49      -0.00000000
  50      -0.00000000
  51      -0.11304131
  52       0.00000000
  53       0.00000000
  54       0.23026075
  55      -0.00000000
  56       0.00000000
  57      -0.02030272
  58      -0.01798305
  59      -0.01798305
  60      -0.00000000
  61      -0.00000000
  62       0.00000000
  63      -0.24380650
  64      -0.04823353
  65      -0.04823353
  66      -0.00000000
  67       0.00000000
  68      -0.00000000
Ene=     5.59890E-03
Spin= Alpha
Occup=   0.0000000000
   1       0.61352679
   2       0.16312723
   3      -0.93010124
   4       0.60455118
   5       0.10109156
   6       0.16115251
   7       0.06350796
   8      -0.05743708
   9      -0.00504643
  10       0.00021251
  11      -0.82234834
  12       0.00000000
  13      -0.00000000
  14       0.28891454
  15      -0.00000000
  16       0.00000000
  17      -0.50090512
  18       0.00000000
  19      -0.00000000
  20       0.11232931
  21      -0.00000000
  22       0.00000000
  23      -0.39269069
  24      -0.02876892
  25      -0.02876892
  26       0.00000000
  27      -0.00000000
  28      -0.00000000
  29      -0.01985254
  30      -0.09363377
  31      -0.09363377
  32      -0.00000000
  33       0.00000000
  34       0.00000000
  35       0.61352679
  36       0.16312723
  37      -0.93010124
  38       0.60455118
  39       0.10109156
  40       0.16115251
  41       0.06350796
  42      -0.05743708
  43      -0.00504643
  44       0.00021251
  45       0.82234834
  46      -0.00000000
  47       0.00000000
  48      -0.28891454
  49       0.00000000
  50      -0.00000000
  51       0.50090512
  52      -0.00000000
  53       0.00000000
  54      -0.11232931
  55       0.00000000
  56      -0.00000000
  57      -0.39269069
  58      -0.02876892
  59      -0.02876892
  60       0.00000000
  61      -0.00000000
  62       0.00000000
  63      -0.01985254
  64      -0.09363377
  65      -0.09363377
  66      -0.00000000
  67       0.00000000
  68      -0.00000000
Ene=     1.18112E-02
Spin= Alpha
Occup=   0.0000000000
   1       0.01025695
   2      -3.73354081
   3       0.92041526
   4       0.31851107
   5      -0.60131934
   6      -0.07381053
   7      -0.10048160
   8       0.07151399
   9       0.00331827
  10       0.00016584
  11       0.09616429
  12      -0.00000000
  13       0.00000000
  14      -1.81577218
  15       0.00000000
  16      -0.00000000
  17       0.27389385
  18      -0.00000000
  19       0.00000000
  20       0.45098685
  21       0.00000000
  22      -0.00000000
  23       0.08432409
  24       0.06585263
  25       0.06585263
  26      -0.00000000
  27       0.00000000
  28       0.00000000
  29      -0.34976948
  30       0.12409732
  31       0.12409732
  32       0.00000000
  33      -0.00000000
  34      -0.00000000
  35      -0.01025695
  36       3.73354081
  37      -0.92041526
  38      -0.31851107
  39       0.60131934
  40       0.07381053
  41       0.10048160
  42      -0.07151399
  43      -0.00331827
  44      -0.00016584
  45       0.09616429
  46       0.00000000
  47      -0.00000000
  48      -1.81577218
  49      -0.00000000
  50       0.00000000
  51       0.27389385
  52       0.00000000
  53      -0.00000000
  54       0.45098685
  55      -0.00000000
  56       0.00000000
  57      -0.08432409
  58      -0.06585263
  59      -0.06585263
  60      -0.00000000
  61       0.00000000
  62      -0.00000000
  63       0.34976948
  64      -0.12409732
  65      -0.12409732
  66       0.00000000
  67      -0.00000000
  68       0.00000000
Ene=     1.26554E-02
Spin= Alpha
Occup=   0.0000000000
   1       0.00000000
   2      -0.00000000
   3       0.00000000
   4       0.00000000
   5      -0.00000000
   6       0.00000000
   7      -0.00000000
   8       0.00000000
   9      -0.00000000
  10       0.00000000
  11      -0.00000000
  12      -0.00500342
  13       0.05014520
  14      -0.00000000
  15       0.01326055
  16      -0.13289967
  17       0.00000000
  18      -0.04526109
  19       0.45361509
  20       0.00000000
  21      -0.02922438
  22       0.29289223
  23      -0.00000000
  24      -0.00000000
  25      -0.00000000
  26       0.00514777
  27      -0.05159192
  28      -0.00000000
  29      -0.00000000
  30      -0.00000000
  31      -0.00000000
  32      -0.00892421
  33       0.08944007
  34       0.00000000
  35      -0.00000000
  36       0.00000000
  37      -0.00000000
  38       0.00000000
  39      -0.00000000
  40       0.00000000
  41      -0.00000000
  42      -0.00000000
  43       0.00000000
  44      -0.00000000
  45      -0.00000000
  46      -0.00500342
  47       0.05014520
  48      -0.00000000
  49       0.01326055
  50      -0.13289967
  51       0.00000000
  52      -0.04526109
  53       0.45361509
  54      -0.00000000
  55      -0.02922438
  56       0.29289223
  57       0.00000000
  58       0.00000000
  59       0.00000000
  60      -0.00514777
  61       0.05159192
  62       0.00000000
  63       0.00000000
  64       0.00000000
  65       0.00000000
  66       0.00892421
  67      -0.08944007
  68      -0.00000000
Ene=     1.26554E-02
Spin= Alpha
Occup=   0.0000000000
   1      -0.00000000
   2       0.00000000
   3       0.00000000
   4      -0.00000000
   5       0.00000000
   6      -0.00000000
   7       0.00000000
   8      -0.00000000
   9      -0.00000000
  10       0.00000000
  11       0.00000000
  12       0.05014520
  13       0.00500342
  14       0.00000000
  15      -0.13289967
  16      -0.01326055
  17      -0.00000000
  18       0.45361509
  19       0.04526109
  20      -0.00000000
  21       0.29289223
  22       0.02922438
  23       0.00000000
  24       0.00000000
  25       0.00000000
  26      -0.05159192
  27      -0.00514777
  28      -0.00000000
  29       0.00000000
  30       0.00000000
  31       0.00000000
  32       0.08944007
  33       0.00892421
  34       0.00000000
  35       0.00000000
  36      -0.00000000
  37       0.00000000
  38      -0.00000000
  39       0.00000000
  40      -0.00000000
  41       0.00000000
  42      -0.00000000
  43      -0.00000000
  44       0.00000000
  45       0.00000000
  46       0.05014520
  47       0.00500342
  48       0.00000000
  49      -0.13289967
  50      -0.01326055
  51      -0.00000000
  52       0.45361509
  53       0.04526109
  54       0.00000000
  55       0.29289223
  56       0.02922438
  57      -0.00000000
  58      -0.00000000
  59      -0.00000000
  60       0.05159192
  61       0.00514777
  62       0.00000000
  63      -0.00000000
  64      -0.00000000
  65      -0.00000000
  66      -0.08944007
  67      -0.00892421
  68      -0.00000000
Ene=     1.33184E-02
Spin= Alpha
Occup=   0.0000000000
   1      -0.12842999
   2      -0.33579445
   3      -0.30195577
   4       1.34014611
   5      -0.83825106
   6       0.03225245
   7      -0.10555128
   8       0.06374703
   9       0.00074017
  10       0.00046525
  11      -0.67944998
  12       0.00000000
  13      -0.00000000
  14       0.16392306
  15      -0.00000000
  16       0.00000000
  17      -0.62606785
  18       0.00000000
  19      -0.00000000
  20       0.81983681
  21       0.00000000
  22       0.00000000
  23      -0.23007050
  24       0.06838203
  25       0.06838203
  26       0.00000000
  27      -0.00000000
  28      -0.00000000
  29       0.20935788
  30       0.22126273
  31       0.22126273
  32      -0.00000000
  33       0.00000000
  34       0.00000000
  35      -0.12842999
  36      -0.33579445
  37      -0.30195577
  38       1.34014611
  39      -0.83825106
  40       0.03225245
  41      -0.10555128
  42       0.06374703
  43       0.00074017
  44       0.00046525
  45       0.67944998
  46      -0.00000000
  47       0.00000000
  48      -0.16392306
  49       0.00000000
  50      -0.00000000
  51       0.62606785
  52       0.00000000
  53       0.00000000
  54      -0.81983681
  55       0.00000000
  56       0.00000000
  57      -0.23007050
  58       0.06838203
  59       0.06838203
  60       0.00000000
  61      -0.00000000
  62       0.00000000
  63       0.20935788
  64       0.22126273
  65       0.22126273
  66      -0.00000000
  67       0.00000000
  68      -0.00000000
Ene=     1.49251E-02
Spin= Alpha
Occup=   0.0000000000
   1      -0.00000000
   2      -0.00000000
   3       0.00000000
   4      -0.00000000
   5       0.00000000
   6      -0.00000000
   7       0.00000000
   8      -0.00000000
   9       0.00000000
  10       0.00000000
  11       0.00000000
  12      -0.04013840
  13      -0.00266383
  14      -0.00000000
  15       0.06942260
  16       0.00460732
  17       0.00000000
  18       0.01221130
  19       0.00081042
  20      -0.00000000
  21       0.70864374
  22       0.04703002
  23       0.00000000
  24      -0.00000000
  25      -0.00000000
  26      -0.01614192
  27      -0.00107128
  28       0.00000000
  29      -0.00000000
  30      -0.00000000
  31      -0.00000000
  32       0.04429712
  33       0.00293983
  34       0.00000000
  35      -0.00000000
  36       0.00000000
  37      -0.00000000
  38      -0.00000000
  39       0.00000000
  40       0.00000000
  41       0.00000000
  42      -0.00000000
  43       0.00000000
  44      -0.00000000
  45      -0.00000000
  46       0.04013840
  47       0.00266383
  48      -0.00000000
  49      -0.06942260
  50      -0.00460732
  51       0.00000000
  52      -0.01221130
  53      -0.00081042
  54       0.00000000
  55      -0.70864374
  56      -0.04703002
  57       0.00000000
  58       0.00000000
  59       0.00000000
  60      -0.01614192
  61      -0.00107128
  62      -0.00000000
  63       0.00000000
  64      -0.00000000
  65      -0.00000000
  66       0.04429712
  67       0.00293983
  68      -0.00000000
Ene=     1.49251E-02
Spin= Alpha
Occup=   0.0000000000
   1       0.00000000
   2       0.00000000
   3      -0.00000000
   4       0.00000000
   5      -0.00000000
   6       0.00000000
   7      -0.00000000
   8       0.00000000
   9      -0.00000000
  10       0.00000000
  11      -0.00000000
  12       0.00266383
  13      -0.04013840
  14       0.00000000
  15      -0.00460732
  16       0.06942260
  17      -0.00000000
  18      -0.00081042
  19       0.01221130
  20       0.00000000
  21      -0.04703002
  22       0.70864374
  23      -0.00000000
  24       0.00000000
  25       0.00000000
  26       0.00107128
  27      -0.01614192
  28       0.00000000
  29       0.00000000
  30       0.00000000
  31       0.00000000
  32      -0.00293983
  33       0.04429712
  34      -0.00000000
  35       0.00000000
  36      -0.00000000
  37       0.00000000
  38      -0.00000000
  39       0.00000000
  40      -0.00000000
  41      -0.00000000
  42       0.00000000
  43      -0.00000000
  44      -0.00000000
  45       0.00000000
  46      -0.00266383
  47       0.04013840
  48       0.00000000
  49       0.00460732
  50      -0.06942260
  51      -0.00000000
  52       0.00081042
  53      -0.01221130
  54       0.00000000
  55       0.04703002
  56      -0.70864374
  57      -0.00000000
  58      -0.00000000
  59      -0.00000000
  60       0.00107128
  61      -0.01614192
  62       0.00000000
  63      -0.00000000
  64      -0.00000000
  65      -0.00000000
  66      -0.00293983
  67       0.04429712
  68      -0.00000000
Ene=     1.84077E-02
Spin= Alpha
Occup=   0.0000000000
   1       0.15008223
   2     -15.18472722
   3       2.69961004
   4      -1.66291229
   5       0.57286574
   6      -0.05580522
   7       0.05150990
   8      -0.02719264
   9       0.00052378
  10      -0.00031883
  11       0.03549963
  12      -0.00000000
  13       0.00000000
  14      -7.85826094
  15       0.00000000
  16      -0.00000000
  17       1.63582163
  18      -0.00000000
  19       0.00000000
  20      -0.68975866
  21       0.00000000
  22      -0.00000000
  23       0.01737373
  24       0.01895608
  25       0.01895608
  26      -0.00000000
  27       0.00000000
  28      -0.00000000
  29      -2.09186603
  30      -0.08343880
  31      -0.08343880
  32       0.00000000
  33      -0.00000000
  34       0.00000000
  35      -0.15008223
  36      15.18472722
  37      -2.69961004
  38       1.66291229
  39      -0.57286574
  40       0.05580522
  41      -0.05150990
  42       0.02719264
  43      -0.00052378
  44       0.00031883
  45       0.03549963
  46       0.00000000
  47      -0.00000000
  48      -7.85826094
  49      -0.00000000
  50       0.00000000
  51       1.63582163
  52       0.00000000
  53      -0.00000000
  54      -0.68975866
  55       0.00000000
  56      -0.00000000
  57      -0.01737373
  58      -0.01895608
  59      -0.01895608
  60      -0.00000000
  61       0.00000000
  62       0.00000000
  63       2.09186603
  64       0.08343880
  65       0.08343880
  66       0.00000000
  67      -0.00000000
  68       0.00000000
Ene=     1.90070E-02
Spin= Alpha
Occup=   0.0000000000
   1       0.00000000
   2      -0.00000000
   3      -0.00000000
   4       0.00000000
   5      -0.00000000
   6       0.00000000
   7      -0.00000000
   8       0.00000000
   9      -0.00000000
  10       0.00000000
  11      -0.00000000
  12      -0.07418186
  13      -0.01576475
  14      -0.00000000
  15       0.21044904
  16       0.04472356
  17      -0.00000000
  18      -0.89827447
  19      -0.19089672
  20       0.00000000
  21       0.96000811
  22       0.20401603
  23      -0.00000000
  24      -0.00000000
  25      -0.00000000
  26       0.06647614
  27       0.01412717
  28      -0.00000000
  29      -0.00000000
  30      -0.00000000
  31      -0.00000000
  32      -0.12074061
  33      -0.02565918
  34       0.00000000
  35       0.00000000
  36       0.00000000
  37       0.00000000
  38      -0.00000000
  39       0.00000000
  40      -0.00000000
  41       0.00000000
  42      -0.00000000
  43       0.00000000
  44      -0.00000000
  45       0.00000000
  46      -0.07418186
  47      -0.01576475
  48      -0.00000000
  49       0.21044904
  50       0.04472356
  51      -0.00000000
  52      -0.89827447
  53      -0.19089672
  54       0.00000000
  55       0.96000811
  56       0.20401603
  57      -0.00000000
  58       0.00000000
  59       0.00000000
  60      -0.06647614
  61      -0.01412717
  62       0.00000000
  63       0.00000000
  64       0.00000000
  65       0.00000000
  66       0.12074061
  67       0.02565918
  68      -0.00000000
Ene=     1.90070E-02
Spin= Alpha
Occup=   0.0000000000
   1       0.00000000
   2      -0.00000000
   3      -0.00000000
   4       0.00000000
   5      -0.00000000
   6       0.00000000
   7      -0.00000000
   8       0.00000000
   9      -0.00000000
  10       0.00000000
  11      -0.00000000
  12      -0.01576475
  13       0.07418186
  14      -0.00000000
  15       0.04472356
  16      -0.21044904
  17      -0.00000000
  18      -0.19089672
  19       0.89827447
  20       0.00000000
  21       0.20401603
  22      -0.96000811
  23      -0.00000000
  24      -0.00000000
  25      -0.00000000
  26       0.01412717
  27      -0.06647614
  28      -0.00000000
  29      -0.00000000
  30      -0.00000000
  31      -0.00000000
  32      -0.02565918
  33       0.12074061
  34      -0.00000000
  35      -0.00000000
  36       0.00000000
  37       0.00000000
  38      -0.00000000
  39       0.00000000
  40      -0.00000000
  41       0.00000000
  42      -0.00000000
  43      -0.00000000
  44       0.00000000
  45      -0.00000000
  46      -0.01576475
  47       0.07418186
  48      -0.00000000
  49       0.04472356
  50      -0.21044904
  51      -0.00000000
  52      -0.19089672
  53       0.89827447
  54       0.00000000
  55       0.20401603
  56      -0.96000811
  57       0.00000000
  58       0.00000000
  59       0.00000000
  60      -0.01412717
  61       0.06647614
  62       0.00000000
  63       0.00000000
  64       0.00000000
  65       0.00000000
  66       0.02565918
  67      -0.12074061
  68      -0.00000000
Ene=     2.28196E-02
Spin= Alpha
Occup=   0.0000000000
   1       0.38701946
   2       0.05171210
   3      -0.15090409
   4       0.98818333
   5      -0.65330893
   6      -0.02229731
   7      -0.06877932
   8       0.04578070
   9       0.00160404
  10       0.00018620
  11      -0.47631360
  12       0.00000000
  13      -0.00000000
  14       0.13544301
  15      -0.00000000
  16       0.00000000
  17      -0.19476855
  18       0.00000000
  19       0.00000000
  20      -0.30735088
  21      -0.00000000
  22      -0.00000000
  23      -0.23285635
  24      -0.02249468
  25      -0.02249468
  26       0.00000000
  27      -0.00000000
  28       0.00000000
  29      -0.03060663
  30      -0.05443914
  31      -0.05443914
  32      -0.00000000
  33       0.00000000
  34      -0.00000000
  35       0.38701946
  36       0.05171210
  37      -0.15090409
  38       0.98818333
  39      -0.65330893
  40      -0.02229731
  41      -0.06877932
  42       0.04578070
  43       0.00160404
  44       0.00018620
  45       0.47631360
  46      -0.00000000
  47       0.00000000
  48      -0.13544301
  49       0.00000000
  50      -0.00000000
  51       0.19476855
  52      -0.00000000
  53       0.00000000
  54       0.30735088
  55       0.00000000
  56       0.00000000
  57      -0.23285635
  58      -0.02249468
  59      -0.02249468
  60       0.00000000
  61      -0.00000000
  62      -0.00000000
  63      -0.03060663
  64      -0.05443914
  65      -0.05443914
  66      -0.00000000
  67       0.00000000
  68       0.00000000
Ene=     2.46764E-02
Spin= Alpha
Occup=   0.0000000000
   1      -0.03612293
   2       4.17911321
   3      -1.44081790
   4       1.70093554
   5      -0.82618322
   6      -0.00766889
   7      -0.07761382
   8       0.04993671
   9       0.00142018
  10       0.00025074
  11      -0.03077092
  12       0.00000000
  13      -0.00000000
  14       2.17756277
  15      -0.00000000
  16       0.00000000
  17      -0.79169485
  18       0.00000000
  19      -0.00000000
  20      -0.31430154
  21      -0.00000000
  22       0.00000000
  23      -0.01245647
  24      -0.02809325
  25      -0.02809325
  26       0.00000000
  27      -0.00000000
  28       0.00000000
  29       0.54362605
  30       0.01927797
  31       0.01927797
  32      -0.00000000
  33       0.00000000
  34      -0.00000000
  35       0.03612293
  36      -4.17911321
  37       1.44081790
  38      -1.70093554
  39       0.82618322
  40       0.00766889
  41       0.07761382
  42      -0.04993671
  43      -0.00142018
  44      -0.00025074
  45      -0.03077092
  46      -0.00000000
  47       0.00000000
  48       2.17756277
  49       0.00000000
  50      -0.00000000
  51      -0.79169485
  52      -0.00000000
  53       0.00000000
  54      -0.31430154
  55       0.00000000
  56      -0.00000000
  57       0.01245647
  58       0.02809325
  59       0.02809325
  60       0.00000000
  61      -0.00000000
  62      -0.00000000
  63      -0.54362605
  64      -0.01927797
  65      -0.01927797
  66      -0.00000000
  67       0.00000000
  68       0.00000000
Ene=     2.51285E-02
Spin= Alpha
Occup=   0.0000000000
   1       0.00000000
   2      -0.00000000
   3      -0.00000000
   4       0.00000000
   5      -0.00000000
   6       0.00000000
   7      -0.00000000
   8       0.00000000
   9       0.00000000
  10       0.00000000
  11      -0.00000000
  12      -0.38786898
  13       2.62144127
  14      -0.00000000
  15       0.10127315
  16      -0.68446212
  17       0.00000000
  18      -0.21841993
  19       1.47620732
  20      -0.00000000
  21       0.11977704
  22      -0.80952200
  23      -0.00000000
  24      -0.00000000
  25      -0.00000000
  26      -0.09364019
  27       0.63287417
  28       0.00000000
  29      -0.00000000
  30      -0.00000000
  31      -0.00000000
  32       0.00970083
  33      -0.06556381
  34      -0.00000000
  35      -0.00000000
  36       0.00000000
  37       0.00000000
  38      -0.00000000
  39       0.00000000
  40       0.00000000
  41       0.00000000
  42      -0.00000000
  43      -0.00000000
  44      -0.00000000
  45      -0.00000000
  46       0.38786898
  47      -2.62144127
  48      -0.00000000
  49      -0.10127315
  50       0.68446212
  51       0.00000000
  52       0.21841993
  53      -1.47620732
  54      -0.00000000
  55      -0.11977704
  56       0.80952200
  57       0.00000000
  58       0.00000000
  59       0.00000000
  60      -0.09364019
  61       0.63287417
  62      -0.00000000
  63       0.00000000
  64       0.00000000
  65       0.00000000
  66       0.00970083
  67      -0.06556381
  68       0.00000000
Ene=     2.51285E-02
Spin= Alpha
Occup=   0.0000000000
   1       0.00000000
   2       0.00000000
   3       0.00000000
   4      -0.00000000
   5       0.00000000
   6       0.00000000
   7       0.00000000
   8      -0.00000000
   9      -0.00000000
  10       0.00000000
  11       0.00000000
  12       2.62144127
  13       0.38786898
  14       0.00000000
  15      -0.68446212
  16      -0.10127315
  17      -0.00000000
  18       1.47620732
  19       0.21841993
  20       0.00000000
  21      -0.80952200
  22      -0.11977704
  23       0.00000000
  24       0.00000000
  25       0.00000000
  26       0.63287417
  27       0.09364019
  28      -0.00000000
  29       0.00000000
  30       0.00000000
  31       0.00000000
  32      -0.06556381
  33      -0.00970083
  34       0.00000000
  35      -0.00000000
  36      -0.00000000
  37      -0.00000000
  38       0.00000000
  39      -0.00000000
  40      -0.00000000
  41      -0.00000000
  42       0.00000000
  43       0.00000000
  44       0.00000000
  45       0.00000000
  46      -2.62144127
  47      -0.38786898
  48       0.00000000
  49       0.68446212
  50       0.10127315
  51      -0.00000000
  52      -1.47620732
  53      -0.21841993
  54       0.00000000
  55       0.80952200
  56       0.11977704
  57      -0.00000000
  58      -0.00000000
  59      -0.00000000
  60       0.63287417
  61       0.09364019
  62       0.00000000
  63      -0.00000000
  64      -0.00000000
  65      -0.00000000
  66      -0.06556381
  67      -0.00970083
  68      -0.00000000
Ene=     3.09898E-02
Spin= Alpha
Occup=   0.0000000000
   1      -5.24107658
   2      -1.81759077
   3       3.46342926
   4      -1.19041061
   5       0.24897467
   6       0.05029388
   7       0.01214712
   8      -0.01287057
   9      -0.00145397
  10       0.00008809
  11       3.84805701
  12      -0.00000000
  13      -0.00000000
  14      -1.64579754
  15      -0.00000000
  16       0.00000000
  17       1.03114459
  18       0.00000000
  19       0.00000000
  20      -0.67172719
  21      -0.00000000
  22      -0.00000000
  23       2.26720561
  24       0.48620890
  25       0.48620890
  26      -0.00000000
  27      -0.00000000
  28       0.00000000
  29       0.62929363
  30       1.43646916
  31       1.43646916
  32      -0.00000000
  33       0.00000000
  34      -0.00000000
  35      -5.24107658
  36      -1.81759077
  37       3.46342926
  38      -1.19041061
  39       0.24897467
  40       0.05029388
  41       0.01214712
  42      -0.01287057
  43      -0.00145397
  44       0.00008809
  45      -3.84805701
  46       0.00000000
  47       0.00000000
  48       1.64579754
  49       0.00000000
  50      -0.00000000
  51      -1.03114459
  52      -0.00000000
  53       0.00000000
  54       0.67172719
  55       0.00000000
  56      -0.00000000
  57       2.26720561
  58       0.48620890
  59       0.48620890
  60      -0.00000000
  61      -0.00000000
  62      -0.00000000
  63       0.62929363
  64       1.43646916
  65       1.43646916
  66      -0.00000000
  67       0.00000000
  68      -0.00000000
Ene=     3.13913E-02
Spin= Alpha
Occup=   0.0000000000
   1      -1.98658192
   2      -1.78158545
   3       3.54363926
   4      -2.16140439
   5       0.72007909
   6       0.03763654
   7       0.05121069
   8      -0.03610787
   9      -0.00172330
  10      -0.00008587
  11       0.02544516
  12       0.00000000
  13       0.00000000
  14      -0.27195484
  15      -0.00000000
  16      -0.00000000
  17      -0.59471644
  18       0.00000000
  19       0.00000000
  20       0.40819216
  21      -0.00000000
  22      -0.00000000
  23       0.32302368
  24       0.29127716
  25       0.29127716
  26       0.00000000
  27       0.00000000
  28      -0.00000000
  29       0.68718459
  30       0.95576945
  31       0.95576945
  32      -0.00000000
  33      -0.00000000
  34      -0.00000000
  35      -1.98658192
  36      -1.78158545
  37       3.54363926
  38      -2.16140439
  39       0.72007909
  40       0.03763654
  41       0.05121069
  42      -0.03610787
  43      -0.00172330
  44      -0.00008587
  45      -0.02544516
  46      -0.00000000
  47      -0.00000000
  48       0.27195484
  49       0.00000000
  50       0.00000000
  51       0.59471644
  52      -0.00000000
  53       0.00000000
  54      -0.40819216
  55       0.00000000
  56      -0.00000000
  57       0.32302368
  58       0.29127716
  59       0.29127716
  60       0.00000000
  61       0.00000000
  62       0.00000000
  63       0.68718459
  64       0.95576945
  65       0.95576945
  66      -0.00000000
  67      -0.00000000
  68      -0.00000000
Ene=     3.23817E-02
Spin= Alpha
Occup=   0.0000000000
   1       0.19232723
   2     -14.02034496
   3      -0.40049914
   4       0.86466358
   5      -0.37531478
   6       0.01052123
   7      -0.02912276
   8       0.01724920
   9       0.00018827
  10       0.00013084
  11      -0.14815071
  12      -0.00000000