 Molden2AIM, Version 3.1.0 (02/25/2015)           Time: Thu Oct 17 19:55:11 2024
GAUSSIAN             68 MOL ORBITALS     68 PRIMITIVES        2 NUCLEI
  Be   1    (CENTRE  1)   0.00000000  0.00000000  0.00000000  CHARGE =  4.0
  Be   2    (CENTRE  2)  42.60000000  0.00000000  0.00000000  CHARGE =  4.0
CENTRE ASSIGNMENTS    1  1  1  1  1  1  1  1  1  1  1  1  1  1  1  1  1  1  1  1
CENTRE ASSIGNMENTS    1  1  1  1  1  1  1  1  1  1  1  1  1  1  2  2  2  2  2  2
CENTRE ASSIGNMENTS    2  2  2  2  2  2  2  2  2  2  2  2  2  2  2  2  2  2  2  2
CENTRE ASSIGNMENTS    2  2  2  2  2  2  2  2
TYPE ASSIGNMENTS      1  1  1  1  1  1  1  1  1  1  2  3  4  2  3  4  2  3  4  2
TYPE ASSIGNMENTS      3  4  5  6  7  8  9 10  5  6  7  8  9 10  1  1  1  1  1  1
TYPE ASSIGNMENTS      1  1  1  1  2  3  4  2  3  4  2  3  4  2  3  4  5  6  7  8
TYPE ASSIGNMENTS      9 10  5  6  7  8  9 10
EXPONENTS  0.1000000D-03 0.3000000D-03 0.9000000D-03 0.2700000D-02 0.8100000D-02
EXPONENTS  0.2430000D-01 0.7290000D-01 0.2187000D+00 0.6561000D+00 0.1968300D+01
EXPONENTS  0.1000000D-03 0.1000000D-03 0.1000000D-03 0.3000000D-03 0.3000000D-03
EXPONENTS  0.3000000D-03 0.9000000D-03 0.9000000D-03 0.9000000D-03 0.2700000D-02
EXPONENTS  0.2700000D-02 0.2700000D-02 0.1000000D-03 0.1000000D-03 0.1000000D-03
EXPONENTS  0.1000000D-03 0.1000000D-03 0.1000000D-03 0.3000000D-03 0.3000000D-03
EXPONENTS  0.3000000D-03 0.3000000D-03 0.3000000D-03 0.3000000D-03 0.1000000D-03
EXPONENTS  0.3000000D-03 0.9000000D-03 0.2700000D-02 0.8100000D-02 0.2430000D-01
EXPONENTS  0.7290000D-01 0.2187000D+00 0.6561000D+00 0.1968300D+01 0.1000000D-03
EXPONENTS  0.1000000D-03 0.1000000D-03 0.3000000D-03 0.3000000D-03 0.3000000D-03
EXPONENTS  0.9000000D-03 0.9000000D-03 0.9000000D-03 0.2700000D-02 0.2700000D-02
EXPONENTS  0.2700000D-02 0.1000000D-03 0.1000000D-03 0.1000000D-03 0.1000000D-03
EXPONENTS  0.1000000D-03 0.1000000D-03 0.3000000D-03 0.3000000D-03 0.3000000D-03
EXPONENTS  0.3000000D-03 0.3000000D-03 0.3000000D-03
MO    1     MO 0.0        OCC NO =    1.0000000  ORB. ENERGY =   -0.003024
 -0.36181420D-05 -0.21936491D-04  0.12301628D-03  0.16883756D-02  0.56871586D-02
  0.86252219D-02  0.12119509D-01 -0.22346447D-01 -0.34955527D-02  0.11484602D-03
  0.16584557D-06 -0.00000000D+00  0.00000000D+00  0.18122879D-06  0.00000000D+00
 -0.00000000D+00  0.16255343D-05 -0.00000000D+00  0.00000000D+00  0.72175610D-04
  0.00000000D+00 -0.00000000D+00  0.64030017D-09  0.84913156D-11  0.84913156D-11
 -0.00000000D+00  0.00000000D+00  0.00000000D+00  0.65666975D-08  0.13853038D-08
  0.13853038D-08  0.00000000D+00 -0.00000000D+00 -0.00000000D+00 -0.36181420D-05
 -0.21936491D-04  0.12301628D-03  0.16883756D-02  0.56871586D-02  0.86252219D-02
  0.12119509D-01 -0.22346447D-01 -0.34955527D-02  0.11484602D-03 -0.16584557D-06
  0.00000000D+00 -0.00000000D+00 -0.18122879D-06 -0.00000000D+00  0.00000000D+00
 -0.16255343D-05  0.00000000D+00 -0.00000000D+00 -0.72175610D-04 -0.00000000D+00
  0.00000000D+00  0.64030017D-09  0.84913156D-11  0.84913156D-11 -0.00000000D+00
  0.00000000D+00 -0.00000000D+00  0.65666975D-08  0.13853038D-08  0.13853038D-08
  0.00000000D+00 -0.00000000D+00 -0.00000000D+00
MO    2     MO 0.0        OCC NO =    0.0000000  ORB. ENERGY =   -0.002783
 -0.66707878D-05  0.10236725D-02  0.21815925D-05  0.21856433D-02  0.54043549D-02
  0.94557128D-02  0.12260792D-01 -0.23010867D-01 -0.37668214D-02  0.17265395D-03
  0.92130438D-07 -0.00000000D+00  0.00000000D+00  0.15015702D-04  0.00000000D+00
 -0.00000000D+00 -0.65965654D-05 -0.00000000D+00  0.00000000D+00  0.98446516D-04
  0.00000000D+00 -0.00000000D+00  0.12005591D-08  0.10826024D-08  0.10826024D-08
 -0.00000000D+00  0.00000000D+00  0.00000000D+00  0.82746892D-07  0.18108450D-07
  0.18108450D-07  0.00000000D+00 -0.00000000D+00 -0.00000000D+00  0.66707878D-05
 -0.10236725D-02 -0.21815925D-05 -0.21856433D-02 -0.54043549D-02 -0.94557128D-02
 -0.12260792D-01  0.23010867D-01  0.37668214D-02 -0.17265395D-03  0.92130438D-07
  0.00000000D+00 -0.00000000D+00  0.15015702D-04 -0.00000000D+00  0.00000000D+00
 -0.65965654D-05  0.00000000D+00 -0.00000000D+00  0.98446516D-04 -0.00000000D+00
  0.00000000D+00 -0.12005591D-08 -0.10826024D-08 -0.10826024D-08 -0.00000000D+00
  0.00000000D+00 -0.00000000D+00 -0.82746892D-07 -0.18108450D-07 -0.18108450D-07
  0.00000000D+00 -0.00000000D+00  0.00000000D+00
MO    3     MO 0.0        OCC NO =    0.0000000  ORB. ENERGY =    0.004456
 -0.44300803D-03 -0.19898319D-03  0.35437893D-02 -0.46893764D-02 -0.16310292D-02
 -0.53306514D-02 -0.42295079D-02  0.90001540D-02  0.19086692D-02 -0.20434704D-03
  0.14436849D-04  0.00000000D+00 -0.00000000D+00 -0.18196818D-04 -0.00000000D+00
  0.00000000D+00  0.10073425D-03  0.00000000D+00  0.00000000D+00 -0.29704062D-04
 -0.00000000D+00 -0.00000000D+00  0.66675061D-07  0.45705630D-08  0.45705630D-08
  0.00000000D+00 -0.00000000D+00  0.00000000D+00 -0.19774177D-07  0.10445849D-06
  0.10445849D-06 -0.00000000D+00  0.00000000D+00 -0.00000000D+00 -0.44300803D-03
 -0.19898319D-03  0.35437893D-02 -0.46893764D-02 -0.16310292D-02 -0.53306514D-02
 -0.42295079D-02  0.90001540D-02  0.19086692D-02 -0.20434704D-03 -0.14436849D-04
 -0.00000000D+00  0.00000000D+00  0.18196818D-04  0.00000000D+00 -0.00000000D+00
 -0.10073425D-03  0.00000000D+00  0.00000000D+00  0.29704062D-04 -0.00000000D+00
 -0.00000000D+00  0.66675061D-07  0.45705630D-08  0.45705630D-08  0.00000000D+00
 -0.00000000D+00 -0.00000000D+00 -0.19774177D-07  0.10445849D-06  0.10445849D-06
 -0.00000000D+00  0.00000000D+00  0.00000000D+00
MO    4     MO 0.0        OCC NO =    0.0000000  ORB. ENERGY =    0.008115
  0.00000000D+00 -0.00000000D+00  0.00000000D+00 -0.00000000D+00 -0.00000000D+00
 -0.00000000D+00 -0.00000000D+00  0.00000000D+00  0.00000000D+00 -0.00000000D+00
 -0.00000000D+00 -0.21204356D-06 -0.41157743D-06 -0.00000000D+00  0.23943944D-05
  0.46475307D-05  0.00000000D+00 -0.31454261D-04 -0.61052871D-04 -0.00000000D+00
 -0.16713288D-03 -0.32440571D-03 -0.00000000D+00 -0.00000000D+00 -0.00000000D+00
  0.29914016D-08  0.58063231D-08  0.00000000D+00 -0.00000000D+00 -0.00000000D+00
 -0.00000000D+00 -0.45066243D-07 -0.87473800D-07 -0.00000000D+00 -0.00000000D+00
  0.00000000D+00 -0.00000000D+00  0.00000000D+00 -0.00000000D+00  0.00000000D+00
  0.00000000D+00  0.00000000D+00 -0.00000000D+00  0.00000000D+00  0.00000000D+00
 -0.21204356D-06 -0.41157743D-06 -0.00000000D+00  0.23943944D-05  0.46475307D-05
  0.00000000D+00 -0.31454261D-04 -0.61052871D-04 -0.00000000D+00 -0.16713288D-03
 -0.32440571D-03 -0.00000000D+00  0.00000000D+00  0.00000000D+00 -0.29914016D-08
 -0.58063231D-08 -0.00000000D+00  0.00000000D+00  0.00000000D+00  0.00000000D+00
  0.45066243D-07  0.87473800D-07  0.00000000D+00
MO    5     MO 0.0        OCC NO =    0.0000000  ORB. ENERGY =    0.008115
  0.00000000D+00 -0.00000000D+00  0.00000000D+00 -0.00000000D+00  0.00000000D+00
 -0.00000000D+00  0.00000000D+00 -0.00000000D+00  0.00000000D+00 -0.00000000D+00
  0.00000000D+00 -0.41157743D-06  0.21204356D-06 -0.00000000D+00  0.46475307D-05
 -0.23943944D-05  0.00000000D+00 -0.61052871D-04  0.31454261D-04 -0.00000000D+00
 -0.32440571D-03  0.16713288D-03 -0.00000000D+00 -0.00000000D+00 -0.00000000D+00
  0.58063231D-08 -0.29914016D-08 -0.00000000D+00 -0.00000000D+00 -0.00000000D+00
 -0.00000000D+00 -0.87473800D-07  0.45066243D-07  0.00000000D+00 -0.00000000D+00
  0.00000000D+00 -0.00000000D+00  0.00000000D+00 -0.00000000D+00  0.00000000D+00
 -0.00000000D+00 -0.00000000D+00 -0.00000000D+00  0.00000000D+00 -0.00000000D+00
 -0.41157743D-06  0.21204356D-06 -0.00000000D+00  0.46475307D-05 -0.23943944D-05
  0.00000000D+00 -0.61052871D-04  0.31454261D-04 -0.00000000D+00 -0.32440571D-03
  0.16713288D-03  0.00000000D+00  0.00000000D+00  0.00000000D+00 -0.58063231D-08
  0.29914016D-08  0.00000000D+00  0.00000000D+00  0.00000000D+00  0.00000000D+00
  0.87473800D-07 -0.45066243D-07  0.00000000D+00
MO    6     MO 0.0        OCC NO =    0.0000000  ORB. ENERGY =    0.010162
 -0.13692205D-03  0.28899182D-01 -0.67611794D-02 -0.18052942D-02  0.10767020D-01
  0.19420531D-02  0.82747446D-02 -0.12959029D-01 -0.11725170D-02 -0.22386506D-03
 -0.14977711D-05 -0.00000000D+00  0.00000000D+00  0.40410649D-03  0.00000000D+00
 -0.00000000D+00 -0.16058544D-03 -0.00000000D+00  0.00000000D+00 -0.36447000D-03
 -0.00000000D+00 -0.00000000D+00 -0.13684339D-07 -0.94076650D-08 -0.94076650D-08
 -0.00000000D+00  0.00000000D+00  0.00000000D+00  0.16527304D-05 -0.10577384D-06
 -0.10577384D-06  0.00000000D+00 -0.00000000D+00  0.00000000D+00  0.13692205D-03
 -0.28899182D-01  0.67611794D-02  0.18052942D-02 -0.10767020D-01 -0.19420531D-02
 -0.82747446D-02  0.12959029D-01  0.11725170D-02  0.22386506D-03 -0.14977711D-05
  0.00000000D+00 -0.00000000D+00  0.40410649D-03 -0.00000000D+00  0.00000000D+00
 -0.16058544D-03  0.00000000D+00 -0.00000000D+00 -0.36447000D-03 -0.00000000D+00
  0.00000000D+00  0.13684339D-07  0.94076650D-08  0.94076650D-08 -0.00000000D+00
  0.00000000D+00 -0.00000000D+00 -0.16527304D-05  0.10577384D-06  0.10577384D-06
  0.00000000D+00 -0.00000000D+00 -0.00000000D+00
MO    7     MO 0.0        OCC NO =    0.0000000  ORB. ENERGY =    0.010353
  0.00000000D+00 -0.00000000D+00 -0.00000000D+00 -0.00000000D+00  0.00000000D+00
  0.00000000D+00  0.00000000D+00 -0.00000000D+00  0.00000000D+00 -0.00000000D+00
  0.00000000D+00 -0.16384201D-05 -0.26803898D-06 -0.00000000D+00  0.55996187D-05
  0.91607541D-06 -0.00000000D+00 -0.11923918D-05 -0.19507123D-06 -0.00000000D+00
  0.64175516D-03  0.10498859D-03 -0.00000000D+00 -0.00000000D+00 -0.00000000D+00
 -0.78864110D-08 -0.12901851D-08 -0.00000000D+00 -0.00000000D+00 -0.00000000D+00
 -0.00000000D+00  0.81799155D-07  0.13382017D-07  0.00000000D+00 -0.00000000D+00
  0.00000000D+00  0.00000000D+00  0.00000000D+00 -0.00000000D+00 -0.00000000D+00
 -0.00000000D+00  0.00000000D+00  0.00000000D+00  0.00000000D+00 -0.00000000D+00
  0.16384201D-05  0.26803898D-06 -0.00000000D+00 -0.55996187D-05 -0.91607541D-06
 -0.00000000D+00  0.11923918D-05  0.19507123D-06 -0.00000000D+00 -0.64175516D-03
 -0.10498859D-03  0.00000000D+00  0.00000000D+00  0.00000000D+00 -0.78864110D-08
 -0.12901851D-08 -0.00000000D+00  0.00000000D+00  0.00000000D+00  0.00000000D+00
  0.81799155D-07  0.13382017D-07  0.00000000D+00
MO    8     MO 0.0        OCC NO =    0.0000000  ORB. ENERGY =    0.010353
  0.00000000D+00 -0.00000000D+00 -0.00000000D+00  0.00000000D+00  0.00000000D+00
  0.00000000D+00  0.00000000D+00 -0.00000000D+00 -0.00000000D+00  0.00000000D+00
 -0.00000000D+00  0.26803898D-06 -0.16384201D-05 -0.00000000D+00 -0.91607541D-06
  0.55996187D-05 -0.00000000D+00  0.19507123D-06 -0.11923918D-05 -0.00000000D+00
 -0.10498859D-03  0.64175516D-03 -0.00000000D+00 -0.00000000D+00 -0.00000000D+00
  0.12901851D-08 -0.78864110D-08 -0.00000000D+00 -0.00000000D+00 -0.00000000D+00
 -0.00000000D+00 -0.13382017D-07  0.81799155D-07 -0.00000000D+00 -0.00000000D+00
  0.00000000D+00  0.00000000D+00  0.00000000D+00 -0.00000000D+00 -0.00000000D+00
 -0.00000000D+00  0.00000000D+00  0.00000000D+00  0.00000000D+00  0.00000000D+00
 -0.26803898D-06  0.16384201D-05 -0.00000000D+00  0.91607541D-06 -0.55996187D-05
  0.00000000D+00 -0.19507123D-06  0.11923918D-05 -0.00000000D+00  0.10498859D-03
 -0.64175516D-03 -0.00000000D+00  0.00000000D+00  0.00000000D+00  0.12901851D-08
 -0.78864110D-08  0.00000000D+00  0.00000000D+00  0.00000000D+00  0.00000000D+00
 -0.13382017D-07  0.81799155D-07 -0.00000000D+00
MO    9     MO 0.0        OCC NO =    0.0000000  ORB. ENERGY =    0.010536
 -0.24371901D-03  0.43613741D-03  0.21504772D-02 -0.11492781D-01  0.13773644D-01
 -0.23209758D-02  0.81478126D-02 -0.10534664D-01  0.66275365D-04 -0.51290468D-03
  0.18436400D-04 -0.00000000D+00  0.00000000D+00 -0.19754467D-04  0.00000000D+00
 -0.00000000D+00  0.14251938D-03 -0.00000000D+00  0.00000000D+00 -0.68091652D-03
 -0.00000000D+00  0.00000000D+00  0.74724769D-07 -0.50205402D-08 -0.50205402D-08
 -0.00000000D+00  0.00000000D+00  0.00000000D+00 -0.23734887D-06 -0.11695753D-06
 -0.11695753D-06 -0.00000000D+00 -0.00000000D+00 -0.00000000D+00 -0.24371901D-03
  0.43613741D-03  0.21504772D-02 -0.11492781D-01  0.13773644D-01 -0.23209758D-02
  0.81478126D-02 -0.10534664D-01  0.66275365D-04 -0.51290468D-03 -0.18436400D-04
  0.00000000D+00 -0.00000000D+00  0.19754467D-04 -0.00000000D+00  0.00000000D+00
 -0.14251938D-03  0.00000000D+00 -0.00000000D+00  0.68091652D-03  0.00000000D+00
 -0.00000000D+00  0.74724769D-07 -0.50205402D-08 -0.50205402D-08 -0.00000000D+00
  0.00000000D+00 -0.00000000D+00 -0.23734887D-06 -0.11695753D-06 -0.11695753D-06
 -0.00000000D+00 -0.00000000D+00  0.00000000D+00
MO   10     MO 0.0        OCC NO =    0.0000000  ORB. ENERGY =    0.015206
  0.00000000D+00 -0.00000000D+00  0.00000000D+00 -0.00000000D+00  0.00000000D+00
 -0.00000000D+00  0.00000000D+00 -0.00000000D+00  0.00000000D+00  0.00000000D+00
 -0.00000000D+00  0.23621183D-06  0.10579865D-05 -0.00000000D+00 -0.28943778D-05
 -0.12963838D-04  0.00000000D+00  0.47549309D-04  0.21297204D-03 -0.00000000D+00
 -0.18110865D-03 -0.81118062D-03 -0.00000000D+00 -0.00000000D+00 -0.00000000D+00
 -0.23460810D-08 -0.10508027D-07  0.00000000D+00 -0.00000000D+00 -0.00000000D+00
 -0.00000000D+00  0.42228921D-07  0.18914217D-06 -0.00000000D+00  0.00000000D+00
  0.00000000D+00 -0.00000000D+00  0.00000000D+00 -0.00000000D+00  0.00000000D+00
 -0.00000000D+00  0.00000000D+00  0.00000000D+00 -0.00000000D+00  0.00000000D+00
  0.23621183D-06  0.10579865D-05 -0.00000000D+00 -0.28943778D-05 -0.12963838D-04
  0.00000000D+00  0.47549309D-04  0.21297204D-03 -0.00000000D+00 -0.18110865D-03
 -0.81118062D-03 -0.00000000D+00  0.00000000D+00 -0.00000000D+00  0.23460810D-08
  0.10508027D-07 -0.00000000D+00  0.00000000D+00 -0.00000000D+00 -0.00000000D+00
 -0.42228921D-07 -0.18914217D-06  0.00000000D+00
MO   11     MO 0.0        OCC NO =    0.0000000  ORB. ENERGY =    0.015206
 -0.00000000D+00  0.00000000D+00 -0.00000000D+00  0.00000000D+00 -0.00000000D+00
  0.00000000D+00 -0.00000000D+00  0.00000000D+00  0.00000000D+00 -0.00000000D+00
  0.00000000D+00  0.10579865D-05 -0.23621183D-06  0.00000000D+00 -0.12963838D-04
  0.28943778D-05 -0.00000000D+00  0.21297204D-03 -0.47549309D-04  0.00000000D+00
 -0.81118062D-03  0.18110865D-03  0.00000000D+00  0.00000000D+00  0.00000000D+00
 -0.10508027D-07  0.23460810D-08 -0.00000000D+00  0.00000000D+00  0.00000000D+00
  0.00000000D+00  0.18914217D-06 -0.42228921D-07 -0.00000000D+00  0.00000000D+00
 -0.00000000D+00  0.00000000D+00 -0.00000000D+00  0.00000000D+00 -0.00000000D+00
  0.00000000D+00 -0.00000000D+00 -0.00000000D+00  0.00000000D+00  0.00000000D+00
  0.10579865D-05 -0.23621183D-06  0.00000000D+00 -0.12963838D-04  0.28943778D-05
 -0.00000000D+00  0.21297204D-03 -0.47549309D-04  0.00000000D+00 -0.81118062D-03
  0.18110865D-03 -0.00000000D+00 -0.00000000D+00 -0.00000000D+00  0.10508027D-07
 -0.23460810D-08  0.00000000D+00 -0.00000000D+00 -0.00000000D+00 -0.00000000D+00
 -0.18914217D-06  0.42228921D-07  0.00000000D+00
MO   12     MO 0.0        OCC NO =    0.0000000  ORB. ENERGY =    0.016070
 -0.21817637D-03  0.39849026D-01 -0.79024576D-02  0.89989281D-02 -0.71218441D-02
  0.24357946D-02 -0.30856985D-02  0.31845571D-02 -0.45145287D-03  0.29522190D-03
  0.26260788D-06 -0.00000000D+00  0.00000000D+00  0.56810525D-03  0.00000000D+00
 -0.00000000D+00 -0.29007115D-03 -0.00000000D+00  0.00000000D+00  0.78804507D-03
  0.00000000D+00 -0.00000000D+00  0.95276824D-08  0.95014760D-08  0.95014760D-08
 -0.00000000D+00  0.00000000D+00 -0.00000000D+00  0.26506809D-05  0.20913041D-06
  0.20913041D-06  0.00000000D+00 -0.00000000D+00  0.00000000D+00  0.21817637D-03
 -0.39849026D-01  0.79024576D-02 -0.89989281D-02  0.71218441D-02 -0.24357946D-02
  0.30856985D-02 -0.31845571D-02  0.45145287D-03 -0.29522190D-03  0.26260788D-06
  0.00000000D+00 -0.00000000D+00  0.56810525D-03 -0.00000000D+00  0.00000000D+00
 -0.29007115D-03 -0.00000000D+00 -0.00000000D+00  0.78804507D-03  0.00000000D+00
 -0.00000000D+00 -0.95276824D-08 -0.95014760D-08 -0.95014760D-08 -0.00000000D+00
  0.00000000D+00  0.00000000D+00 -0.26506809D-05 -0.20913041D-06 -0.20913041D-06
  0.00000000D+00 -0.00000000D+00 -0.00000000D+00
MO   13     MO 0.0        OCC NO =    0.0000000  ORB. ENERGY =    0.016842
 -0.10436066D-03 -0.15659685D-06  0.85633046D-03 -0.10611428D-01  0.14708237D-01
  0.90772042D-03  0.80560969D-02 -0.12089916D-01 -0.89786079D-03 -0.27698298D-03
  0.55780876D-05 -0.00000000D+00  0.00000000D+00 -0.23229034D-05 -0.00000000D+00
 -0.00000000D+00  0.42988199D-04  0.00000000D+00  0.00000000D+00  0.25730638D-03
 -0.00000000D+00 -0.00000000D+00  0.23035040D-07 -0.28686294D-09 -0.28686294D-09
 -0.00000000D+00  0.00000000D+00 -0.00000000D+00  0.68874618D-08 -0.15930003D-07
 -0.15930003D-07 -0.00000000D+00 -0.00000000D+00  0.00000000D+00 -0.10436066D-03
 -0.15659685D-06  0.85633046D-03 -0.10611428D-01  0.14708237D-01  0.90772042D-03
  0.80560969D-02 -0.12089916D-01 -0.89786079D-03 -0.27698298D-03 -0.55780876D-05
  0.00000000D+00 -0.00000000D+00  0.23229034D-05  0.00000000D+00  0.00000000D+00
 -0.42988199D-04  0.00000000D+00 -0.00000000D+00 -0.25730638D-03 -0.00000000D+00
 -0.00000000D+00  0.23035040D-07 -0.28686294D-09 -0.28686294D-09 -0.00000000D+00
  0.00000000D+00  0.00000000D+00  0.68874618D-08 -0.15930003D-07 -0.15930003D-07
 -0.00000000D+00 -0.00000000D+00 -0.00000000D+00
MO   14     MO 0.0        OCC NO =    0.0000000  ORB. ENERGY =    0.019574
  0.18743309D-03 -0.36833159D-01  0.12313000D-01 -0.20061995D-01  0.19665334D-01
 -0.23530321D-04  0.93668153D-02 -0.13483150D-01 -0.74381057D-03 -0.39420953D-03
  0.92842959D-06  0.00000000D+00 -0.00000000D+00 -0.52080163D-03 -0.00000000D+00
  0.00000000D+00  0.34436495D-03  0.00000000D+00 -0.00000000D+00  0.13608715D-03
 -0.00000000D+00  0.00000000D+00  0.34076856D-08  0.38532418D-08  0.38532418D-08
  0.00000000D+00 -0.00000000D+00  0.00000000D+00 -0.22557455D-05 -0.45360528D-07
 -0.45360528D-07 -0.00000000D+00  0.00000000D+00 -0.00000000D+00 -0.18743309D-03
  0.36833159D-01 -0.12313000D-01  0.20061995D-01 -0.19665334D-01  0.23530321D-04
 -0.93668153D-02  0.13483150D-01  0.74381057D-03  0.39420953D-03  0.92842959D-06
 -0.00000000D+00  0.00000000D+00 -0.52080163D-03  0.00000000D+00 -0.00000000D+00
  0.34436495D-03 -0.00000000D+00  0.00000000D+00  0.13608715D-03  0.00000000D+00
 -0.00000000D+00 -0.34076856D-08 -0.38532418D-08 -0.38532418D-08  0.00000000D+00
 -0.00000000D+00 -0.00000000D+00  0.22557455D-05  0.45360528D-07  0.45360528D-07
 -0.00000000D+00  0.00000000D+00  0.00000000D+00
MO   15     MO 0.0        OCC NO =    0.0000000  ORB. ENERGY =    0.021773
  0.00000000D+00 -0.00000000D+00  0.00000000D+00  0.00000000D+00 -0.00000000D+00
 -0.00000000D+00 -0.00000000D+00  0.00000000D+00  0.00000000D+00  0.00000000D+00
 -0.00000000D+00  0.48931346D-04  0.48656160D-04 -0.00000000D+00 -0.44575234D-04
 -0.44324546D-04  0.00000000D+00  0.25618906D-03  0.25474827D-03 -0.00000000D+00
 -0.49831197D-03 -0.49550951D-03 -0.00000000D+00 -0.00000000D+00 -0.00000000D+00
  0.20329064D-06  0.20214735D-06 -0.00000000D+00 -0.00000000D+00 -0.00000000D+00
 -0.00000000D+00 -0.27190379D-06 -0.27037463D-06  0.00000000D+00 -0.00000000D+00
  0.00000000D+00 -0.00000000D+00 -0.00000000D+00  0.00000000D+00 -0.00000000D+00
  0.00000000D+00 -0.00000000D+00 -0.00000000D+00 -0.00000000D+00  0.00000000D+00
 -0.48931346D-04 -0.48656160D-04 -0.00000000D+00  0.44575234D-04  0.44324546D-04
  0.00000000D+00 -0.25618906D-03 -0.25474827D-03 -0.00000000D+00  0.49831197D-03
  0.49550951D-03 -0.00000000D+00  0.00000000D+00  0.00000000D+00  0.20329064D-06
  0.20214735D-06  0.00000000D+00  0.00000000D+00  0.00000000D+00  0.00000000D+00
 -0.27190379D-06 -0.27037463D-06 -0.00000000D+00
MO   16     MO 0.0        OCC NO =    0.0000000  ORB. ENERGY =    0.021773
  0.00000000D+00 -0.00000000D+00  0.00000000D+00  0.00000000D+00 -0.00000000D+00
  0.00000000D+00 -0.00000000D+00  0.00000000D+00 -0.00000000D+00  0.00000000D+00
 -0.00000000D+00  0.48656160D-04 -0.48931346D-04 -0.00000000D+00 -0.44324546D-04
  0.44575234D-04  0.00000000D+00  0.25474827D-03 -0.25618906D-03 -0.00000000D+00
 -0.49550951D-03  0.49831197D-03 -0.00000000D+00 -0.00000000D+00 -0.00000000D+00
  0.20214735D-06 -0.20329064D-06  0.00000000D+00 -0.00000000D+00 -0.00000000D+00
 -0.00000000D+00 -0.27037463D-06  0.27190379D-06 -0.00000000D+00 -0.00000000D+00
  0.00000000D+00 -0.00000000D+00 -0.00000000D+00  0.00000000D+00  0.00000000D+00
  0.00000000D+00 -0.00000000D+00 -0.00000000D+00 -0.00000000D+00  0.00000000D+00
 -0.48656160D-04  0.48931346D-04 -0.00000000D+00  0.44324546D-04 -0.44575234D-04
  0.00000000D+00 -0.25474827D-03  0.25618906D-03 -0.00000000D+00  0.49550951D-03
 -0.49831197D-03 -0.00000000D+00  0.00000000D+00  0.00000000D+00  0.20214735D-06
 -0.20329064D-06  0.00000000D+00  0.00000000D+00  0.00000000D+00  0.00000000D+00
 -0.27037463D-06  0.27190379D-06 -0.00000000D+00
MO   17     MO 0.0        OCC NO =    0.0000000  ORB. ENERGY =    0.027307
 -0.63535201D-03  0.19817322D-02 -0.67543156D-02  0.10878440D-01 -0.85754670D-02
 -0.19195922D-02 -0.31625617D-02  0.55046058D-02  0.77442837D-03  0.12329041D-04
  0.44352839D-04 -0.00000000D+00  0.00000000D+00 -0.45925055D-04  0.00000000D+00
 -0.00000000D+00  0.24913505D-03 -0.00000000D+00 -0.00000000D+00 -0.55361804D-03
 -0.00000000D+00  0.00000000D+00  0.18389997D-06 -0.10325703D-07 -0.10325703D-07
 -0.00000000D+00  0.00000000D+00  0.00000000D+00 -0.66994384D-06 -0.33921776D-06
 -0.33921776D-06  0.00000000D+00 -0.00000000D+00 -0.00000000D+00 -0.63535201D-03
  0.19817322D-02 -0.67543156D-02  0.10878440D-01 -0.85754670D-02 -0.19195922D-02
 -0.31625617D-02  0.55046058D-02  0.77442837D-03  0.12329041D-04 -0.44352839D-04
  0.00000000D+00 -0.00000000D+00  0.45925055D-04 -0.00000000D+00  0.00000000D+00
 -0.24913505D-03  0.00000000D+00  0.00000000D+00  0.55361804D-03  0.00000000D+00
 -0.00000000D+00  0.18389997D-06 -0.10325703D-07 -0.10325703D-07 -0.00000000D+00
  0.00000000D+00 -0.00000000D+00 -0.66994384D-06 -0.33921776D-06 -0.33921776D-06
  0.00000000D+00 -0.00000000D+00  0.00000000D+00
MO   18     MO 0.0        OCC NO =    0.0000000  ORB. ENERGY =    0.028937
 -0.40371015D-03  0.64728623D-01 -0.19309439D-02 -0.46461430D-02  0.42964961D-02
  0.58029659D-03  0.16459532D-02 -0.26287742D-02 -0.27002691D-03 -0.38384651D-04
  0.43281513D-05 -0.00000000D+00  0.00000000D+00  0.95136396D-03  0.00000000D+00
 -0.00000000D+00 -0.60335387D-03 -0.00000000D+00  0.00000000D+00  0.62931968D-03
 -0.00000000D+00 -0.00000000D+00  0.63542661D-07  0.53732160D-07  0.53732160D-07
 -0.00000000D+00  0.00000000D+00 -0.00000000D+00  0.50496650D-05  0.99851346D-06
  0.99851346D-06  0.00000000D+00 -0.00000000D+00  0.00000000D+00  0.40371015D-03
 -0.64728623D-01  0.19309439D-02  0.46461430D-02 -0.42964961D-02 -0.58029659D-03
 -0.16459532D-02  0.26287742D-02  0.27002691D-03  0.38384651D-04  0.43281513D-05
  0.00000000D+00 -0.00000000D+00  0.95136396D-03 -0.00000000D+00  0.00000000D+00
 -0.60335387D-03  0.00000000D+00 -0.00000000D+00  0.62931968D-03  0.00000000D+00
  0.00000000D+00 -0.63542661D-07 -0.53732160D-07 -0.53732160D-07 -0.00000000D+00
  0.00000000D+00  0.00000000D+00 -0.50496650D-05 -0.99851346D-06 -0.99851346D-06
  0.00000000D+00 -0.00000000D+00 -0.00000000D+00
MO   19     MO 0.0        OCC NO =    0.0000000  ORB. ENERGY =    0.030307
  0.39083048D-02  0.38921663D-02 -0.17675383D-01  0.17621479D-01 -0.90017628D-02
 -0.44197662D-02 -0.23547900D-02  0.56282838D-02  0.14095101D-02 -0.18429607D-03
 -0.59750220D-04  0.00000000D+00 -0.00000000D+00  0.10695880D-03 -0.00000000D+00
  0.00000000D+00 -0.11673116D-03  0.00000000D+00 -0.00000000D+00  0.30427305D-03
 -0.00000000D+00  0.00000000D+00 -0.35559612D-06 -0.90499030D-07 -0.90499030D-07
  0.00000000D+00 -0.00000000D+00  0.00000000D+00 -0.82501243D-06 -0.19098721D-05
 -0.19098721D-05 -0.00000000D+00  0.00000000D+00  0.00000000D+00  0.39083048D-02
  0.38921663D-02 -0.17675383D-01  0.17621479D-01 -0.90017628D-02 -0.44197662D-02
 -0.23547900D-02  0.56282838D-02  0.14095101D-02 -0.18429607D-03  0.59750220D-04
 -0.00000000D+00  0.00000000D+00 -0.10695880D-03  0.00000000D+00 -0.00000000D+00
  0.11673116D-03 -0.00000000D+00  0.00000000D+00 -0.30427305D-03  0.00000000D+00
  0.00000000D+00 -0.35559612D-06 -0.90499030D-07 -0.90499030D-07  0.00000000D+00
 -0.00000000D+00 -0.00000000D+00 -0.82501243D-06 -0.19098721D-05 -0.19098721D-05
 -0.00000000D+00  0.00000000D+00  0.00000000D+00
MO   20     MO 0.0        OCC NO =    0.0000000  ORB. ENERGY =    0.038879
 -0.17921139D-03 -0.63915747D-01  0.17475220D-01 -0.11389423D-01  0.56870615D-03
  0.11526229D-01 -0.12259690D-02 -0.37613071D-02 -0.27708880D-02  0.70135780D-03
  0.41212808D-04  0.00000000D+00 -0.00000000D+00 -0.87017360D-03 -0.00000000D+00
  0.00000000D+00 -0.12553356D-03  0.00000000D+00 -0.00000000D+00  0.16062052D-03
 -0.00000000D+00  0.00000000D+00  0.59994501D-06  0.52942409D-06  0.52942409D-06
  0.00000000D+00 -0.00000000D+00  0.00000000D+00  0.19004676D-06  0.40712518D-05
  0.40712518D-05 -0.00000000D+00  0.00000000D+00 -0.00000000D+00  0.17921139D-03
  0.63915747D-01 -0.17475220D-01  0.11389423D-01 -0.56870615D-03 -0.11526229D-01
  0.12259690D-02  0.37613071D-02  0.27708880D-02 -0.70135780D-03  0.41212808D-04
 -0.00000000D+00  0.00000000D+00 -0.87017360D-03  0.00000000D+00 -0.00000000D+00
 -0.12553356D-03 -0.00000000D+00  0.00000000D+00  0.16062052D-03  0.00000000D+00
 -0.00000000D+00 -0.59994501D-06 -0.52942409D-06 -0.52942409D-06  0.00000000D+00
 -0.00000000D+00 -0.00000000D+00 -0.19004676D-06 -0.40712518D-05 -0.40712518D-05
 -0.00000000D+00  0.00000000D+00  0.00000000D+00
MO   21     MO 0.0        OCC NO =    0.0000000  ORB. ENERGY =    0.040758
  0.00000000D+00  0.00000000D+00  0.00000000D+00 -0.00000000D+00 -0.00000000D+00
  0.00000000D+00 -0.00000000D+00 -0.00000000D+00 -0.00000000D+00  0.00000000D+00
 -0.00000000D+00 -0.00000000D+00 -0.00000000D+00  0.00000000D+00  0.00000000D+00
  0.00000000D+00 -0.00000000D+00 -0.00000000D+00 -0.00000000D+00  0.00000000D+00
 -0.00000000D+00  0.00000000D+00  0.00000000D+00  0.49302218D-07 -0.49302218D-07
 -0.00000000D+00 -0.00000000D+00 -0.92669016D-08  0.00000000D+00 -0.65344054D-06
  0.65344054D-06  0.00000000D+00  0.00000000D+00  0.12282145D-06  0.00000000D+00
 -0.00000000D+00 -0.00000000D+00  0.00000000D+00  0.00000000D+00 -0.00000000D+00
  0.00000000D+00  0.00000000D+00  0.00000000D+00 -0.00000000D+00  0.00000000D+00
  0.00000000D+00  0.00000000D+00  0.00000000D+00 -0.00000000D+00 -0.00000000D+00
 -0.00000000D+00  0.00000000D+00 -0.00000000D+00 -0.00000000D+00 -0.00000000D+00
  0.00000000D+00 -0.00000000D+00  0.49302218D-07 -0.49302218D-07 -0.00000000D+00
 -0.00000000D+00 -0.92669016D-08 -0.00000000D+00 -0.65344054D-06  0.65344054D-06
  0.00000000D+00 -0.00000000D+00  0.12282145D-06
MO   22     MO 0.0        OCC NO =    0.0000000  ORB. ENERGY =    0.040758
  0.00000000D+00 -0.00000000D+00  0.00000000D+00 -0.00000000D+00 -0.00000000D+00
  0.00000000D+00 -0.00000000D+00 -0.00000000D+00 -0.00000000D+00  0.00000000D+00
 -0.00000000D+00  0.00000000D+00 -0.00000000D+00 -0.00000000D+00 -0.00000000D+00
  0.00000000D+00  0.00000000D+00  0.00000000D+00 -0.00000000D+00  0.00000000D+00
 -0.00000000D+00  0.00000000D+00 -0.00000000D+00  0.46334504D-08 -0.46334504D-08
  0.00000000D+00 -0.00000000D+00  0.98604435D-07 -0.00000000D+00 -0.61410719D-07
  0.61410719D-07 -0.00000000D+00  0.00000000D+00 -0.13068811D-05  0.00000000D+00
  0.00000000D+00 -0.00000000D+00  0.00000000D+00  0.00000000D+00 -0.00000000D+00
  0.00000000D+00  0.00000000D+00  0.00000000D+00 -0.00000000D+00  0.00000000D+00
 -0.00000000D+00  0.00000000D+00 -0.00000000D+00  0.00000000D+00 -0.00000000D+00
  0.00000000D+00 -0.00000000D+00  0.00000000D+00  0.00000000D+00  0.00000000D+00
  0.00000000D+00 -0.00000000D+00  0.46334504D-08 -0.46334504D-08  0.00000000D+00
 -0.00000000D+00  0.98604435D-07  0.00000000D+00 -0.61410719D-07  0.61410719D-07
 -0.00000000D+00  0.00000000D+00 -0.13068811D-05
MO   23     MO 0.0        OCC NO =    0.0000000  ORB. ENERGY =    0.042233
  0.11176616D-02 -0.15871291D+00  0.71049085D-02 -0.48591159D-02 -0.33948433D-02
  0.12365695D-01 -0.23658029D-02 -0.24282732D-02 -0.27945697D-02  0.76999064D-03
 -0.20555383D-04  0.00000000D+00 -0.00000000D+00 -0.20988646D-02 -0.00000000D+00
  0.00000000D+00 -0.26074487D-04  0.00000000D+00 -0.00000000D+00  0.93942817D-04
 -0.00000000D+00  0.00000000D+00 -0.42591136D-06 -0.48244881D-06 -0.48244881D-06
  0.00000000D+00 -0.00000000D+00  0.00000000D+00 -0.10182113D-04 -0.49843588D-06
 -0.49843588D-06 -0.00000000D+00  0.00000000D+00 -0.00000000D+00 -0.11176616D-02
  0.15871291D+00 -0.71049085D-02  0.48591159D-02  0.33948433D-02 -0.12365695D-01
  0.23658029D-02  0.24282732D-02  0.27945697D-02 -0.76999064D-03 -0.20555383D-04
 -0.00000000D+00  0.00000000D+00 -0.20988646D-02  0.00000000D+00 -0.00000000D+00
 -0.26074487D-04 -0.00000000D+00  0.00000000D+00  0.93942817D-04  0.00000000D+00
 -0.00000000D+00  0.42591136D-06  0.48244881D-06  0.48244881D-06  0.00000000D+00
 -0.00000000D+00 -0.00000000D+00  0.10182113D-04  0.49843588D-06  0.49843588D-06
 -0.00000000D+00  0.00000000D+00  0.00000000D+00
MO   24     MO 0.0        OCC NO =    0.0000000  ORB. ENERGY =    0.043113
  0.91309686D-02 -0.35595376D-02 -0.16019811D-02  0.74104625D-04 -0.11953489D-02
  0.28649485D-02 -0.63532725D-03 -0.43291633D-03 -0.63588189D-03  0.18080225D-03
 -0.23440442D-03  0.00000000D+00 -0.00000000D+00  0.77491579D-04 -0.00000000D+00
  0.00000000D+00 -0.59827387D-04  0.00000000D+00 -0.00000000D+00  0.61623939D-04
 -0.00000000D+00  0.00000000D+00 -0.12676313D-05 -0.17384018D-06 -0.17384018D-06
  0.00000000D+00 -0.00000000D+00 -0.00000000D+00 -0.43247619D-06 -0.12511279D-05
 -0.12511279D-05 -0.00000000D+00  0.00000000D+00  0.00000000D+00  0.91309686D-02
 -0.35595376D-02 -0.16019811D-02  0.74104625D-04 -0.11953489D-02  0.28649485D-02
 -0.63532725D-03 -0.43291633D-03 -0.63588189D-03  0.18080225D-03  0.23440442D-03
 -0.00000000D+00  0.00000000D+00 -0.77491579D-04  0.00000000D+00 -0.00000000D+00