 Molden2AIM, Version 3.1.0 (02/25/2015)           Time: Thu Oct 17 19:54:35 2024
GAUSSIAN             68 MOL ORBITALS     68 PRIMITIVES        2 NUCLEI
  Be   1    (CENTRE  1)   0.00000000  0.00000000  0.00000000  CHARGE =  4.0
  Be   2    (CENTRE  2)  34.60000000  0.00000000  0.00000000  CHARGE =  4.0
CENTRE ASSIGNMENTS    1  1  1  1  1  1  1  1  1  1  1  1  1  1  1  1  1  1  1  1
CENTRE ASSIGNMENTS    1  1  1  1  1  1  1  1  1  1  1  1  1  1  2  2  2  2  2  2
CENTRE ASSIGNMENTS    2  2  2  2  2  2  2  2  2  2  2  2  2  2  2  2  2  2  2  2
CENTRE ASSIGNMENTS    2  2  2  2  2  2  2  2
TYPE ASSIGNMENTS      1  1  1  1  1  1  1  1  1  1  2  3  4  2  3  4  2  3  4  2
TYPE ASSIGNMENTS      3  4  5  6  7  8  9 10  5  6  7  8  9 10  1  1  1  1  1  1
TYPE ASSIGNMENTS      1  1  1  1  2  3  4  2  3  4  2  3  4  2  3  4  5  6  7  8
TYPE ASSIGNMENTS      9 10  5  6  7  8  9 10
EXPONENTS  0.1000000D-03 0.3000000D-03 0.9000000D-03 0.2700000D-02 0.8100000D-02
EXPONENTS  0.2430000D-01 0.7290000D-01 0.2187000D+00 0.6561000D+00 0.1968300D+01
EXPONENTS  0.1000000D-03 0.1000000D-03 0.1000000D-03 0.3000000D-03 0.3000000D-03
EXPONENTS  0.3000000D-03 0.9000000D-03 0.9000000D-03 0.9000000D-03 0.2700000D-02
EXPONENTS  0.2700000D-02 0.2700000D-02 0.1000000D-03 0.1000000D-03 0.1000000D-03
EXPONENTS  0.1000000D-03 0.1000000D-03 0.1000000D-03 0.3000000D-03 0.3000000D-03
EXPONENTS  0.3000000D-03 0.3000000D-03 0.3000000D-03 0.3000000D-03 0.1000000D-03
EXPONENTS  0.3000000D-03 0.9000000D-03 0.2700000D-02 0.8100000D-02 0.2430000D-01
EXPONENTS  0.7290000D-01 0.2187000D+00 0.6561000D+00 0.1968300D+01 0.1000000D-03
EXPONENTS  0.1000000D-03 0.1000000D-03 0.3000000D-03 0.3000000D-03 0.3000000D-03
EXPONENTS  0.9000000D-03 0.9000000D-03 0.9000000D-03 0.2700000D-02 0.2700000D-02
EXPONENTS  0.2700000D-02 0.1000000D-03 0.1000000D-03 0.1000000D-03 0.1000000D-03
EXPONENTS  0.1000000D-03 0.1000000D-03 0.3000000D-03 0.3000000D-03 0.3000000D-03
EXPONENTS  0.3000000D-03 0.3000000D-03 0.3000000D-03
MO    1     MO 0.0        OCC NO =    1.0000000  ORB. ENERGY =   -0.003798
 -0.50140875D-04  0.99337882D-04  0.68881868D-05  0.18919844D-02  0.53734263D-02
  0.83808856D-02  0.11980517D-01 -0.22034957D-01 -0.34153635D-02  0.10395004D-03
  0.35038539D-05 -0.00000000D+00  0.00000000D+00 -0.47656889D-05 -0.00000000D+00
 -0.00000000D+00  0.11329328D-04 -0.00000000D+00  0.00000000D+00 -0.72422050D-05
  0.00000000D+00 -0.00000000D+00  0.12057887D-07 -0.36598410D-09 -0.36598410D-09
 -0.00000000D+00  0.00000000D+00 -0.00000000D+00 -0.50940935D-07 -0.10370768D-07
 -0.10370768D-07 -0.00000000D+00 -0.00000000D+00  0.00000000D+00 -0.50140875D-04
  0.99337882D-04  0.68881868D-05  0.18919844D-02  0.53734263D-02  0.83808856D-02
  0.11980517D-01 -0.22034957D-01 -0.34153635D-02  0.10395004D-03 -0.35038539D-05
  0.00000000D+00 -0.00000000D+00  0.47656889D-05  0.00000000D+00  0.00000000D+00
 -0.11329328D-04  0.00000000D+00  0.00000000D+00  0.72422050D-05 -0.00000000D+00
  0.00000000D+00  0.12057887D-07 -0.36598410D-09 -0.36598410D-09 -0.00000000D+00
  0.00000000D+00  0.00000000D+00 -0.50940935D-07 -0.10370768D-07 -0.10370768D-07
 -0.00000000D+00 -0.00000000D+00 -0.00000000D+00
MO    2     MO 0.0        OCC NO =    0.0000000  ORB. ENERGY =   -0.003324
 -0.14044431D-05 -0.12470350D-04 -0.12200775D-03 -0.24953116D-02 -0.52856836D-02
 -0.92267753D-02 -0.12277383D-01  0.22934265D-01  0.37068483D-02 -0.15728114D-03
  0.13958365D-06 -0.00000000D+00  0.00000000D+00  0.10388208D-05  0.00000000D+00
 -0.00000000D+00 -0.14754174D-04  0.00000000D+00 -0.00000000D+00 -0.82932199D-05
 -0.00000000D+00  0.00000000D+00  0.24757575D-08  0.11721209D-08  0.11721209D-08
 -0.00000000D+00  0.00000000D+00  0.00000000D+00  0.28986240D-07  0.37748977D-07
  0.37748977D-07  0.00000000D+00 -0.00000000D+00 -0.00000000D+00  0.14044431D-05
  0.12470350D-04  0.12200775D-03  0.24953116D-02  0.52856836D-02  0.92267753D-02
  0.12277383D-01 -0.22934265D-01 -0.37068483D-02  0.15728114D-03  0.13958365D-06
  0.00000000D+00 -0.00000000D+00  0.10388208D-05 -0.00000000D+00  0.00000000D+00
 -0.14754174D-04 -0.00000000D+00 -0.00000000D+00 -0.82932199D-05  0.00000000D+00
  0.00000000D+00 -0.24757575D-08 -0.11721209D-08 -0.11721209D-08 -0.00000000D+00
  0.00000000D+00  0.00000000D+00 -0.28986240D-07 -0.37748977D-07 -0.37748977D-07
  0.00000000D+00 -0.00000000D+00 -0.00000000D+00
MO    3     MO 0.0        OCC NO =    0.0000000  ORB. ENERGY =    0.004135
 -0.51153293D-03 -0.55179000D-04  0.39221518D-02 -0.62389518D-02 -0.85648227D-03
 -0.48959912D-02 -0.36160614D-02  0.78866644D-02  0.17396556D-02 -0.20110193D-03
  0.22581854D-04  0.00000000D+00  0.00000000D+00 -0.27968971D-04  0.00000000D+00
 -0.00000000D+00  0.10818652D-03 -0.00000000D+00  0.00000000D+00 -0.43392249D-04
  0.00000000D+00 -0.00000000D+00  0.83140145D-07  0.40166507D-08  0.40166507D-08
  0.00000000D+00  0.00000000D+00  0.00000000D+00 -0.11347533D-06  0.95977581D-07
  0.95977581D-07  0.00000000D+00 -0.00000000D+00 -0.00000000D+00 -0.51153293D-03
 -0.55179000D-04  0.39221518D-02 -0.62389518D-02 -0.85648227D-03 -0.48959912D-02
 -0.36160614D-02  0.78866644D-02  0.17396556D-02 -0.20110193D-03 -0.22581854D-04
 -0.00000000D+00 -0.00000000D+00  0.27968971D-04 -0.00000000D+00  0.00000000D+00
 -0.10818652D-03  0.00000000D+00 -0.00000000D+00  0.43392249D-04 -0.00000000D+00
  0.00000000D+00  0.83140145D-07  0.40166507D-08  0.40166507D-08  0.00000000D+00
  0.00000000D+00 -0.00000000D+00 -0.11347533D-06  0.95977581D-07  0.95977581D-07
  0.00000000D+00 -0.00000000D+00  0.00000000D+00
MO    4     MO 0.0        OCC NO =    0.0000000  ORB. ENERGY =    0.005562
  0.00000000D+00 -0.00000000D+00  0.00000000D+00 -0.00000000D+00 -0.00000000D+00
  0.00000000D+00 -0.00000000D+00  0.00000000D+00 -0.00000000D+00  0.00000000D+00
 -0.00000000D+00 -0.37946406D-06 -0.40329722D-07  0.00000000D+00  0.48388170D-05
  0.51427361D-06  0.00000000D+00 -0.68532377D-04 -0.72836821D-05  0.00000000D+00
 -0.33279030D-03 -0.35369253D-04 -0.00000000D+00  0.00000000D+00 -0.00000000D+00
  0.79214077D-09  0.84190472D-10 -0.00000000D+00  0.00000000D+00  0.00000000D+00
  0.00000000D+00 -0.55796183D-07 -0.59300735D-08  0.00000000D+00  0.00000000D+00
 -0.00000000D+00 -0.00000000D+00  0.00000000D+00 -0.00000000D+00  0.00000000D+00
  0.00000000D+00 -0.00000000D+00  0.00000000D+00 -0.00000000D+00  0.00000000D+00
 -0.37946406D-06 -0.40329722D-07 -0.00000000D+00  0.48388170D-05  0.51427361D-06
  0.00000000D+00 -0.68532377D-04 -0.72836821D-05 -0.00000000D+00 -0.33279030D-03
 -0.35369253D-04 -0.00000000D+00  0.00000000D+00  0.00000000D+00 -0.79214077D-09
 -0.84190472D-10  0.00000000D+00  0.00000000D+00  0.00000000D+00  0.00000000D+00
  0.55796183D-07  0.59300735D-08 -0.00000000D+00
MO    5     MO 0.0        OCC NO =    0.0000000  ORB. ENERGY =    0.005562
  0.00000000D+00 -0.00000000D+00 -0.00000000D+00  0.00000000D+00 -0.00000000D+00
  0.00000000D+00 -0.00000000D+00  0.00000000D+00 -0.00000000D+00  0.00000000D+00
  0.00000000D+00  0.40329722D-07 -0.37946406D-06  0.00000000D+00 -0.51427361D-06
  0.48388170D-05  0.00000000D+00  0.72836821D-05 -0.68532377D-04  0.00000000D+00
  0.35369253D-04 -0.33279030D-03  0.00000000D+00 -0.00000000D+00 -0.00000000D+00
 -0.84190472D-10  0.79214077D-09 -0.00000000D+00 -0.00000000D+00 -0.00000000D+00
 -0.00000000D+00  0.59300735D-08 -0.55796183D-07  0.00000000D+00 -0.00000000D+00
 -0.00000000D+00 -0.00000000D+00  0.00000000D+00  0.00000000D+00 -0.00000000D+00
  0.00000000D+00 -0.00000000D+00  0.00000000D+00 -0.00000000D+00 -0.00000000D+00
  0.40329722D-07 -0.37946406D-06 -0.00000000D+00 -0.51427361D-06  0.48388170D-05
  0.00000000D+00  0.72836821D-05 -0.68532377D-04  0.00000000D+00  0.35369253D-04
 -0.33279030D-03  0.00000000D+00  0.00000000D+00  0.00000000D+00  0.84190472D-10
 -0.79214077D-09  0.00000000D+00  0.00000000D+00  0.00000000D+00  0.00000000D+00
 -0.59300735D-08  0.55796183D-07 -0.00000000D+00
MO    6     MO 0.0        OCC NO =    0.0000000  ORB. ENERGY =    0.008015
 -0.00000000D+00  0.00000000D+00 -0.00000000D+00  0.00000000D+00  0.00000000D+00
  0.00000000D+00  0.00000000D+00 -0.00000000D+00 -0.00000000D+00 -0.00000000D+00
 -0.00000000D+00 -0.58818019D-05  0.92604242D-05  0.00000000D+00  0.33342025D-05
 -0.52494331D-05 -0.00000000D+00 -0.16518310D-04  0.26006752D-04 -0.00000000D+00
 -0.34200848D-03  0.53846486D-03  0.00000000D+00  0.00000000D+00  0.00000000D+00
 -0.19904267D-07  0.31337671D-07  0.00000000D+00  0.00000000D+00 -0.00000000D+00
 -0.00000000D+00  0.13953057D-07 -0.21967950D-07  0.00000000D+00  0.00000000D+00
 -0.00000000D+00  0.00000000D+00  0.00000000D+00 -0.00000000D+00  0.00000000D+00
 -0.00000000D+00  0.00000000D+00 -0.00000000D+00  0.00000000D+00 -0.00000000D+00
  0.58818019D-05 -0.92604242D-05  0.00000000D+00 -0.33342025D-05  0.52494331D-05
 -0.00000000D+00  0.16518310D-04 -0.26006752D-04 -0.00000000D+00  0.34200848D-03
 -0.53846486D-03  0.00000000D+00 -0.00000000D+00 -0.00000000D+00 -0.19904267D-07
  0.31337671D-07 -0.00000000D+00 -0.00000000D+00 -0.00000000D+00 -0.00000000D+00
  0.13953057D-07 -0.21967950D-07  0.00000000D+00
MO    7     MO 0.0        OCC NO =    0.0000000  ORB. ENERGY =    0.008015
 -0.00000000D+00  0.00000000D+00 -0.00000000D+00  0.00000000D+00  0.00000000D+00
  0.00000000D+00  0.00000000D+00 -0.00000000D+00 -0.00000000D+00  0.00000000D+00
 -0.00000000D+00  0.92604242D-05  0.58818019D-05  0.00000000D+00 -0.52494331D-05
 -0.33342025D-05 -0.00000000D+00  0.26006752D-04  0.16518310D-04 -0.00000000D+00
  0.53846486D-03  0.34200848D-03 -0.00000000D+00 -0.00000000D+00 -0.00000000D+00
  0.31337671D-07  0.19904267D-07 -0.00000000D+00  0.00000000D+00 -0.00000000D+00
 -0.00000000D+00 -0.21967950D-07 -0.13953057D-07 -0.00000000D+00  0.00000000D+00
 -0.00000000D+00  0.00000000D+00 -0.00000000D+00 -0.00000000D+00 -0.00000000D+00
 -0.00000000D+00  0.00000000D+00 -0.00000000D+00  0.00000000D+00  0.00000000D+00
 -0.92604242D-05 -0.58818019D-05  0.00000000D+00  0.52494331D-05  0.33342025D-05
 -0.00000000D+00 -0.26006752D-04 -0.16518310D-04 -0.00000000D+00 -0.53846486D-03
 -0.34200848D-03 -0.00000000D+00  0.00000000D+00  0.00000000D+00  0.31337671D-07
  0.19904267D-07 -0.00000000D+00 -0.00000000D+00  0.00000000D+00  0.00000000D+00
 -0.21967950D-07 -0.13953057D-07  0.00000000D+00
MO    8     MO 0.0        OCC NO =    0.0000000  ORB. ENERGY =    0.008855
  0.17568126D-04 -0.12601408D-04 -0.11288565D-01 -0.13613873D-02  0.10712611D-01
  0.79277395D-03  0.80553200D-02 -0.12087521D-01 -0.85916898D-03 -0.28371006D-03
 -0.18527252D-05  0.00000000D+00  0.00000000D+00  0.17982043D-05 -0.00000000D+00
 -0.00000000D+00 -0.25606683D-03  0.00000000D+00  0.00000000D+00 -0.22089754D-03
 -0.00000000D+00 -0.00000000D+00 -0.16435459D-07 -0.30580682D-07 -0.30580682D-07
  0.00000000D+00  0.00000000D+00 -0.00000000D+00 -0.29310990D-06 -0.12185181D-06
 -0.12185181D-06 -0.00000000D+00 -0.00000000D+00  0.00000000D+00 -0.17568126D-04
  0.12601408D-04  0.11288565D-01  0.13613873D-02 -0.10712611D-01 -0.79277395D-03
 -0.80553200D-02  0.12087521D-01  0.85916898D-03  0.28371006D-03 -0.18527252D-05
 -0.00000000D+00 -0.00000000D+00  0.17982043D-05  0.00000000D+00  0.00000000D+00
 -0.25606683D-03 -0.00000000D+00 -0.00000000D+00 -0.22089754D-03  0.00000000D+00
  0.00000000D+00  0.16435459D-07  0.30580682D-07  0.30580682D-07  0.00000000D+00
  0.00000000D+00 -0.00000000D+00  0.29310990D-06  0.12185181D-06  0.12185181D-06
 -0.00000000D+00 -0.00000000D+00  0.00000000D+00
MO    9     MO 0.0        OCC NO =    0.0000000  ORB. ENERGY =    0.009286
 -0.23411198D-03  0.41425464D-03  0.12801517D-02 -0.54300387D-02  0.66730673D-02
 -0.21308067D-02  0.40355427D-02 -0.47102421D-02  0.30669762D-03 -0.31883776D-03
  0.18737785D-04  0.00000000D+00  0.00000000D+00 -0.20712846D-04 -0.00000000D+00
 -0.00000000D+00  0.87750619D-04  0.00000000D+00  0.00000000D+00 -0.62118060D-03
 -0.00000000D+00 -0.00000000D+00  0.62943787D-07 -0.31131856D-08 -0.31131856D-08
  0.00000000D+00  0.00000000D+00  0.00000000D+00 -0.22819840D-06 -0.72080010D-07
 -0.72080010D-07 -0.00000000D+00 -0.00000000D+00 -0.00000000D+00 -0.23411198D-03
  0.41425464D-03  0.12801517D-02 -0.54300387D-02  0.66730673D-02 -0.21308067D-02
  0.40355427D-02 -0.47102421D-02  0.30669762D-03 -0.31883776D-03 -0.18737785D-04
 -0.00000000D+00 -0.00000000D+00  0.20712846D-04  0.00000000D+00  0.00000000D+00
 -0.87750619D-04 -0.00000000D+00 -0.00000000D+00  0.62118060D-03  0.00000000D+00
  0.00000000D+00  0.62943787D-07 -0.31131856D-08 -0.31131856D-08  0.00000000D+00
  0.00000000D+00 -0.00000000D+00 -0.22819840D-06 -0.72080010D-07 -0.72080010D-07
 -0.00000000D+00 -0.00000000D+00  0.00000000D+00
MO   10     MO 0.0        OCC NO =    0.0000000  ORB. ENERGY =    0.012703
 -0.00000000D+00  0.00000000D+00 -0.00000000D+00  0.00000000D+00 -0.00000000D+00
 -0.00000000D+00 -0.00000000D+00  0.00000000D+00 -0.00000000D+00  0.00000000D+00
  0.00000000D+00  0.75244165D-06  0.56676434D-06 -0.00000000D+00 -0.10014007D-04
 -0.75428861D-05 -0.00000000D+00  0.17074226D-03  0.12860881D-03  0.00000000D+00
 -0.65384286D-03 -0.49249641D-03  0.00000000D+00  0.00000000D+00  0.00000000D+00
 -0.57416123D-09 -0.43247823D-09  0.00000000D+00 -0.00000000D+00 -0.00000000D+00
 -0.00000000D+00  0.10111930D-06  0.76166445D-07 -0.00000000D+00 -0.00000000D+00
  0.00000000D+00  0.00000000D+00 -0.00000000D+00  0.00000000D+00 -0.00000000D+00
  0.00000000D+00 -0.00000000D+00  0.00000000D+00 -0.00000000D+00 -0.00000000D+00
  0.75244165D-06  0.56676434D-06  0.00000000D+00 -0.10014007D-04 -0.75428861D-05
 -0.00000000D+00  0.17074226D-03  0.12860881D-03  0.00000000D+00 -0.65384286D-03
 -0.49249641D-03  0.00000000D+00 -0.00000000D+00 -0.00000000D+00  0.57416123D-09
  0.43247823D-09 -0.00000000D+00 -0.00000000D+00  0.00000000D+00 -0.00000000D+00
 -0.10111930D-06 -0.76166445D-07  0.00000000D+00
MO   11     MO 0.0        OCC NO =    0.0000000  ORB. ENERGY =    0.012703
 -0.00000000D+00  0.00000000D+00  0.00000000D+00 -0.00000000D+00  0.00000000D+00
 -0.00000000D+00  0.00000000D+00 -0.00000000D+00  0.00000000D+00 -0.00000000D+00
  0.00000000D+00  0.56676434D-06 -0.75244165D-06 -0.00000000D+00 -0.75428861D-05
  0.10014007D-04  0.00000000D+00  0.12860881D-03 -0.17074226D-03  0.00000000D+00
 -0.49249641D-03  0.65384286D-03  0.00000000D+00 -0.00000000D+00 -0.00000000D+00
 -0.43247823D-09  0.57416123D-09 -0.00000000D+00 -0.00000000D+00 -0.00000000D+00
 -0.00000000D+00  0.76166445D-07 -0.10111930D-06  0.00000000D+00 -0.00000000D+00
  0.00000000D+00  0.00000000D+00 -0.00000000D+00  0.00000000D+00 -0.00000000D+00
  0.00000000D+00 -0.00000000D+00 -0.00000000D+00 -0.00000000D+00 -0.00000000D+00
  0.56676434D-06 -0.75244165D-06  0.00000000D+00 -0.75428861D-05  0.10014007D-04
 -0.00000000D+00  0.12860881D-03 -0.17074226D-03 -0.00000000D+00 -0.49249641D-03
  0.65384286D-03  0.00000000D+00 -0.00000000D+00 -0.00000000D+00  0.43247823D-09
 -0.57416123D-09  0.00000000D+00 -0.00000000D+00 -0.00000000D+00 -0.00000000D+00
 -0.76166445D-07  0.10111930D-06 -0.00000000D+00
MO   12     MO 0.0        OCC NO =    0.0000000  ORB. ENERGY =    0.012712
 -0.21531981D-03  0.41191489D-03  0.11653065D-02 -0.13873568D-01  0.19224383D-01
 -0.40909852D-03  0.11376835D-01 -0.16261262D-01 -0.80251591D-03 -0.49966369D-03
  0.20425375D-04  0.00000000D+00  0.00000000D+00 -0.14407410D-04 -0.00000000D+00
 -0.00000000D+00  0.99593394D-04 -0.00000000D+00  0.00000000D+00  0.48010883D-04
  0.00000000D+00 -0.00000000D+00  0.66739328D-07 -0.45739420D-08 -0.45739420D-08
  0.00000000D+00  0.00000000D+00  0.00000000D+00 -0.18604483D-06 -0.11243521D-06
 -0.11243521D-06 -0.00000000D+00 -0.00000000D+00 -0.00000000D+00 -0.21531981D-03
  0.41191489D-03  0.11653065D-02 -0.13873568D-01  0.19224383D-01 -0.40909852D-03
  0.11376835D-01 -0.16261262D-01 -0.80251591D-03 -0.49966369D-03 -0.20425375D-04
 -0.00000000D+00 -0.00000000D+00  0.14407410D-04  0.00000000D+00  0.00000000D+00
 -0.99593394D-04 -0.00000000D+00  0.00000000D+00 -0.48010883D-04  0.00000000D+00
 -0.00000000D+00  0.66739328D-07 -0.45739420D-08 -0.45739420D-08  0.00000000D+00
  0.00000000D+00 -0.00000000D+00 -0.18604483D-06 -0.11243521D-06 -0.11243521D-06
 -0.00000000D+00 -0.00000000D+00  0.00000000D+00
MO   13     MO 0.0        OCC NO =    0.0000000  ORB. ENERGY =    0.013311
  0.12264243D-04  0.25539112D-04 -0.49761241D-02  0.67473455D-03 -0.30428454D-04
 -0.33660308D-02 -0.81363707D-03  0.29297433D-02  0.10183213D-02 -0.19257464D-03
 -0.12692848D-05  0.00000000D+00  0.00000000D+00 -0.16586040D-05 -0.00000000D+00
 -0.00000000D+00 -0.82969753D-04  0.00000000D+00  0.00000000D+00 -0.10118458D-02
 -0.00000000D+00 -0.00000000D+00 -0.14799092D-07 -0.18133423D-07 -0.18133423D-07
  0.00000000D+00  0.00000000D+00  0.00000000D+00 -0.21427675D-06 -0.15602000D-06
 -0.15602000D-06 -0.00000000D+00 -0.00000000D+00 -0.00000000D+00 -0.12264243D-04
 -0.25539112D-04  0.49761241D-02 -0.67473455D-03  0.30428454D-04  0.33660308D-02
  0.81363707D-03 -0.29297433D-02 -0.10183213D-02  0.19257464D-03 -0.12692848D-05
 -0.00000000D+00 -0.00000000D+00 -0.16586040D-05  0.00000000D+00  0.00000000D+00
 -0.82969753D-04 -0.00000000D+00  0.00000000D+00 -0.10118458D-02  0.00000000D+00
 -0.00000000D+00  0.14799092D-07  0.18133423D-07  0.18133423D-07  0.00000000D+00
  0.00000000D+00 -0.00000000D+00  0.21427675D-06  0.15602000D-06  0.15602000D-06
 -0.00000000D+00 -0.00000000D+00  0.00000000D+00
MO   14     MO 0.0        OCC NO =    0.0000000  ORB. ENERGY =    0.017739
 -0.87523154D-05  0.71411753D-04  0.18419423D-01 -0.24840111D-01  0.25360772D-01
 -0.39258992D-02  0.11606634D-01 -0.14809093D-01  0.91193573D-04 -0.72390775D-03
  0.97465752D-06 -0.00000000D+00 -0.00000000D+00 -0.45211857D-05  0.00000000D+00
  0.00000000D+00  0.43687552D-03 -0.00000000D+00 -0.00000000D+00 -0.35776006D-03
  0.00000000D+00  0.00000000D+00  0.12817591D-08  0.21389377D-07  0.21389377D-07
 -0.00000000D+00 -0.00000000D+00  0.00000000D+00  0.16144861D-06 -0.56337492D-07
 -0.56337492D-07  0.00000000D+00  0.00000000D+00 -0.00000000D+00  0.87523154D-05
 -0.71411753D-04 -0.18419423D-01  0.24840111D-01 -0.25360772D-01  0.39258992D-02
 -0.11606634D-01  0.14809093D-01 -0.91193573D-04  0.72390775D-03  0.97465752D-06
  0.00000000D+00  0.00000000D+00 -0.45211857D-05 -0.00000000D+00 -0.00000000D+00
  0.43687552D-03  0.00000000D+00  0.00000000D+00 -0.35776006D-03 -0.00000000D+00
 -0.00000000D+00 -0.12817591D-08 -0.21389377D-07 -0.21389377D-07 -0.00000000D+00
 -0.00000000D+00 -0.00000000D+00 -0.16144861D-06  0.56337492D-07  0.56337492D-07
  0.00000000D+00  0.00000000D+00 -0.00000000D+00
MO   15     MO 0.0        OCC NO =    0.0000000  ORB. ENERGY =    0.018855
  0.00000000D+00  0.00000000D+00 -0.00000000D+00  0.00000000D+00 -0.00000000D+00
  0.00000000D+00 -0.00000000D+00  0.00000000D+00 -0.00000000D+00  0.00000000D+00
 -0.00000000D+00 -0.12836727D-03 -0.46488308D-05  0.00000000D+00  0.11028773D-03
  0.39940784D-05 -0.00000000D+00 -0.40359181D-03 -0.14616108D-04  0.00000000D+00
  0.75612144D-03  0.27382998D-04 -0.00000000D+00 -0.00000000D+00 -0.00000000D+00
 -0.43933066D-06 -0.15910394D-07  0.00000000D+00  0.00000000D+00 -0.00000000D+00
 -0.00000000D+00  0.77668845D-06  0.28127835D-07 -0.00000000D+00 -0.00000000D+00
 -0.00000000D+00  0.00000000D+00 -0.00000000D+00  0.00000000D+00  0.00000000D+00
  0.00000000D+00 -0.00000000D+00 -0.00000000D+00 -0.00000000D+00  0.00000000D+00
  0.12836727D-03  0.46488308D-05  0.00000000D+00 -0.11028773D-03 -0.39940784D-05
 -0.00000000D+00  0.40359181D-03  0.14616108D-04  0.00000000D+00 -0.75612144D-03
 -0.27382998D-04 -0.00000000D+00  0.00000000D+00  0.00000000D+00 -0.43933066D-06
 -0.15910394D-07 -0.00000000D+00 -0.00000000D+00  0.00000000D+00  0.00000000D+00
  0.77668845D-06  0.28127835D-07  0.00000000D+00
MO   16     MO 0.0        OCC NO =    0.0000000  ORB. ENERGY =    0.018855
 -0.00000000D+00  0.00000000D+00  0.00000000D+00 -0.00000000D+00  0.00000000D+00
  0.00000000D+00  0.00000000D+00 -0.00000000D+00 -0.00000000D+00 -0.00000000D+00
 -0.00000000D+00 -0.46488308D-05  0.12836727D-03  0.00000000D+00  0.39940784D-05
 -0.11028773D-03  0.00000000D+00 -0.14616108D-04  0.40359181D-03 -0.00000000D+00
  0.27382998D-04 -0.75612144D-03 -0.00000000D+00  0.00000000D+00  0.00000000D+00
 -0.15910394D-07  0.43933066D-06  0.00000000D+00  0.00000000D+00  0.00000000D+00
  0.00000000D+00  0.28127835D-07 -0.77668845D-06 -0.00000000D+00  0.00000000D+00
 -0.00000000D+00 -0.00000000D+00  0.00000000D+00 -0.00000000D+00  0.00000000D+00
 -0.00000000D+00  0.00000000D+00 -0.00000000D+00  0.00000000D+00 -0.00000000D+00
  0.46488308D-05 -0.12836727D-03  0.00000000D+00 -0.39940784D-05  0.11028773D-03
  0.00000000D+00  0.14616108D-04 -0.40359181D-03  0.00000000D+00 -0.27382998D-04
  0.75612144D-03 -0.00000000D+00 -0.00000000D+00 -0.00000000D+00 -0.15910394D-07
  0.43933066D-06 -0.00000000D+00 -0.00000000D+00 -0.00000000D+00 -0.00000000D+00
  0.28127835D-07 -0.77668845D-06  0.00000000D+00
MO   17     MO 0.0        OCC NO =    0.0000000  ORB. ENERGY =    0.022970
  0.11244469D-02 -0.26320573D-02  0.66432582D-02 -0.10162214D-01  0.85867220D-02
  0.15997903D-02  0.34162008D-02 -0.57640260D-02 -0.74069839D-03 -0.33528832D-04
 -0.81863737D-04  0.00000000D+00 -0.00000000D+00  0.87433530D-04 -0.00000000D+00
  0.00000000D+00 -0.28483848D-03  0.00000000D+00 -0.00000000D+00  0.55213660D-03
  0.00000000D+00  0.00000000D+00 -0.28014147D-06  0.97021074D-08  0.97021074D-08
  0.00000000D+00 -0.00000000D+00 -0.00000000D+00  0.10283044D-05  0.34053361D-06
  0.34053361D-06 -0.00000000D+00  0.00000000D+00 -0.00000000D+00  0.11244469D-02
 -0.26320573D-02  0.66432582D-02 -0.10162214D-01  0.85867220D-02  0.15997903D-02
  0.34162008D-02 -0.57640260D-02 -0.74069839D-03 -0.33528832D-04  0.81863737D-04
 -0.00000000D+00  0.00000000D+00 -0.87433530D-04  0.00000000D+00 -0.00000000D+00
  0.28483848D-03  0.00000000D+00  0.00000000D+00 -0.55213660D-03 -0.00000000D+00
 -0.00000000D+00 -0.28014147D-06  0.97021074D-08  0.97021074D-08  0.00000000D+00
 -0.00000000D+00  0.00000000D+00  0.10283044D-05  0.34053361D-06  0.34053361D-06
 -0.00000000D+00  0.00000000D+00 -0.00000000D+00
MO   18     MO 0.0        OCC NO =    0.0000000  ORB. ENERGY =    0.025623
 -0.50491783D-04 -0.53620458D-03 -0.11774065D-01  0.10081823D-02 -0.73178020D-03
  0.19605491D-02 -0.11626015D-03 -0.78952026D-03 -0.49177090D-03  0.12027033D-03
  0.49824798D-05  0.00000000D+00  0.00000000D+00  0.43270725D-04 -0.00000000D+00
 -0.00000000D+00 -0.89206413D-03  0.00000000D+00  0.00000000D+00  0.82303203D-03
  0.00000000D+00  0.00000000D+00  0.94018706D-07  0.42139824D-07  0.42139824D-07
  0.00000000D+00  0.00000000D+00  0.00000000D+00  0.10885769D-05  0.14116129D-05
  0.14116129D-05 -0.00000000D+00 -0.00000000D+00 -0.00000000D+00  0.50491783D-04
  0.53620458D-03  0.11774065D-01 -0.10081823D-02  0.73178020D-03 -0.19605491D-02
  0.11626015D-03  0.78952026D-03  0.49177090D-03 -0.12027033D-03  0.49824798D-05
 -0.00000000D+00 -0.00000000D+00  0.43270725D-04  0.00000000D+00  0.00000000D+00
 -0.89206413D-03 -0.00000000D+00 -0.00000000D+00  0.82303203D-03 -0.00000000D+00
 -0.00000000D+00 -0.94018706D-07 -0.42139824D-07 -0.42139824D-07  0.00000000D+00
  0.00000000D+00 -0.00000000D+00 -0.10885769D-05 -0.14116129D-05 -0.14116129D-05
 -0.00000000D+00 -0.00000000D+00  0.00000000D+00
MO   19     MO 0.0        OCC NO =    0.0000000  ORB. ENERGY =    0.029060
  0.36684197D-02  0.35782243D-02 -0.17686889D-01  0.17835453D-01 -0.82492096D-02
 -0.55349621D-02 -0.18756268D-02  0.55854745D-02  0.17362369D-02 -0.29209523D-03
 -0.66819667D-04 -0.00000000D+00 -0.00000000D+00  0.13943732D-03  0.00000000D+00
  0.00000000D+00 -0.59457227D-04 -0.00000000D+00 -0.00000000D+00  0.13927347D-03
  0.00000000D+00  0.00000000D+00 -0.32541852D-06 -0.86301760D-07 -0.86301760D-07
 -0.00000000D+00 -0.00000000D+00  0.00000000D+00 -0.55496737D-06 -0.18633394D-05
 -0.18633394D-05  0.00000000D+00  0.00000000D+00 -0.00000000D+00  0.36684197D-02
  0.35782243D-02 -0.17686889D-01  0.17835453D-01 -0.82492096D-02 -0.55349621D-02
 -0.18756268D-02  0.55854745D-02  0.17362369D-02 -0.29209523D-03  0.66819667D-04
  0.00000000D+00  0.00000000D+00 -0.13943732D-03 -0.00000000D+00 -0.00000000D+00
  0.59457227D-04  0.00000000D+00  0.00000000D+00 -0.13927347D-03 -0.00000000D+00
 -0.00000000D+00 -0.32541852D-06 -0.86301760D-07 -0.86301760D-07 -0.00000000D+00
 -0.00000000D+00 -0.00000000D+00 -0.55496737D-06 -0.18633394D-05 -0.18633394D-05
  0.00000000D+00  0.00000000D+00  0.00000000D+00
MO   20     MO 0.0        OCC NO =    0.0000000  ORB. ENERGY =    0.038290
 -0.38132886D-03 -0.63886409D-03  0.16094028D-01 -0.10301144D-01 -0.86599699D-03
  0.13948501D-01 -0.19535539D-02 -0.39207081D-02 -0.33360263D-02  0.87378672D-03
  0.37999105D-04  0.00000000D+00 -0.00000000D+00  0.20499861D-04 -0.00000000D+00
  0.00000000D+00 -0.21265292D-03  0.00000000D+00 -0.00000000D+00  0.23315269D-03
 -0.00000000D+00  0.00000000D+00  0.63248548D-06  0.61259554D-06  0.61259554D-06
  0.00000000D+00 -0.00000000D+00  0.00000000D+00  0.49002039D-05  0.46600673D-05
  0.46600673D-05 -0.00000000D+00  0.00000000D+00 -0.00000000D+00  0.38132886D-03
  0.63886409D-03 -0.16094028D-01  0.10301144D-01  0.86599699D-03 -0.13948501D-01
  0.19535539D-02  0.39207081D-02  0.33360263D-02 -0.87378672D-03  0.37999105D-04
 -0.00000000D+00  0.00000000D+00  0.20499861D-04  0.00000000D+00 -0.00000000D+00
 -0.21265292D-03 -0.00000000D+00  0.00000000D+00  0.23315269D-03  0.00000000D+00
 -0.00000000D+00 -0.63248548D-06 -0.61259554D-06 -0.61259554D-06  0.00000000D+00
 -0.00000000D+00 -0.00000000D+00 -0.49002039D-05 -0.46600673D-05 -0.46600673D-05
 -0.00000000D+00  0.00000000D+00 -0.00000000D+00
MO   21     MO 0.0        OCC NO =    0.0000000  ORB. ENERGY =    0.039560
 -0.00000000D+00  0.00000000D+00 -0.00000000D+00  0.00000000D+00 -0.00000000D+00
 -0.00000000D+00 -0.00000000D+00  0.00000000D+00  0.00000000D+00 -0.00000000D+00
  0.00000000D+00 -0.00000000D+00 -0.00000000D+00 -0.00000000D+00  0.00000000D+00
  0.00000000D+00  0.00000000D+00 -0.00000000D+00 -0.00000000D+00 -0.00000000D+00
  0.00000000D+00  0.00000000D+00  0.00000000D+00  0.45310401D-07 -0.45310401D-07
 -0.00000000D+00 -0.00000000D+00 -0.27583595D-07 -0.00000000D+00 -0.61176497D-06
  0.61176497D-06  0.00000000D+00  0.00000000D+00  0.37242391D-06 -0.00000000D+00
  0.00000000D+00  0.00000000D+00 -0.00000000D+00 -0.00000000D+00  0.00000000D+00
 -0.00000000D+00  0.00000000D+00 -0.00000000D+00  0.00000000D+00 -0.00000000D+00
  0.00000000D+00  0.00000000D+00  0.00000000D+00 -0.00000000D+00 -0.00000000D+00
  0.00000000D+00  0.00000000D+00  0.00000000D+00 -0.00000000D+00 -0.00000000D+00
 -0.00000000D+00  0.00000000D+00  0.45310401D-07 -0.45310401D-07 -0.00000000D+00
 -0.00000000D+00 -0.27583595D-07  0.00000000D+00 -0.61176497D-06  0.61176497D-06
  0.00000000D+00  0.00000000D+00  0.37242391D-06
MO   22     MO 0.0        OCC NO =    0.0000000  ORB. ENERGY =    0.039560
 -0.00000000D+00 -0.00000000D+00  0.00000000D+00 -0.00000000D+00  0.00000000D+00
  0.00000000D+00 -0.00000000D+00 -0.00000000D+00 -0.00000000D+00  0.00000000D+00
  0.00000000D+00 -0.00000000D+00 -0.00000000D+00  0.00000000D+00  0.00000000D+00
  0.00000000D+00 -0.00000000D+00 -0.00000000D+00 -0.00000000D+00  0.00000000D+00
  0.00000000D+00  0.00000000D+00  0.00000000D+00 -0.13791798D-07  0.13791798D-07
 -0.00000000D+00 -0.00000000D+00 -0.90620800D-07  0.00000000D+00  0.18621196D-06
 -0.18621196D-06  0.00000000D+00  0.00000000D+00  0.12235300D-05 -0.00000000D+00
  0.00000000D+00 -0.00000000D+00  0.00000000D+00  0.00000000D+00 -0.00000000D+00
  0.00000000D+00  0.00000000D+00  0.00000000D+00 -0.00000000D+00 -0.00000000D+00
  0.00000000D+00  0.00000000D+00  0.00000000D+00 -0.00000000D+00 -0.00000000D+00
 -0.00000000D+00  0.00000000D+00  0.00000000D+00  0.00000000D+00 -0.00000000D+00
 -0.00000000D+00  0.00000000D+00 -0.13791798D-07  0.13791798D-07 -0.00000000D+00
 -0.00000000D+00 -0.90620800D-07 -0.00000000D+00  0.18621196D-06 -0.18621196D-06
  0.00000000D+00  0.00000000D+00  0.12235300D-05
MO   23     MO 0.0        OCC NO =    0.0000000  ORB. ENERGY =    0.042468
  0.21846331D-03 -0.87920386D-03  0.27481156D-02 -0.21421609D-02 -0.47961232D-02
  0.12416322D-01 -0.27167751D-02 -0.19427877D-02 -0.27598681D-02  0.78172751D-03
 -0.20032841D-04 -0.00000000D+00  0.00000000D+00  0.10146679D-03  0.00000000D+00
 -0.00000000D+00 -0.12604772D-03 -0.00000000D+00  0.00000000D+00  0.14199478D-03
  0.00000000D+00 -0.00000000D+00 -0.55630567D-06 -0.51648299D-06 -0.51648299D-06
 -0.00000000D+00  0.00000000D+00  0.00000000D+00 -0.20215618D-06 -0.69946870D-06
 -0.69946870D-06  0.00000000D+00 -0.00000000D+00 -0.00000000D+00 -0.21846331D-03
  0.87920386D-03 -0.27481156D-02  0.21421609D-02  0.47961232D-02 -0.12416322D-01
  0.27167751D-02  0.19427877D-02  0.27598681D-02 -0.78172751D-03 -0.20032841D-04
  0.00000000D+00 -0.00000000D+00  0.10146679D-03 -0.00000000D+00  0.00000000D+00
 -0.12604772D-03  0.00000000D+00 -0.00000000D+00  0.14199478D-03 -0.00000000D+00
  0.00000000D+00  0.55630567D-06  0.51648299D-06  0.51648299D-06 -0.00000000D+00
  0.00000000D+00 -0.00000000D+00  0.20215618D-06  0.69946870D-06  0.69946870D-06
  0.00000000D+00 -0.00000000D+00  0.00000000D+00
MO   24     MO 0.0        OCC NO =    0.0000000  ORB. ENERGY =    0.043331
 -0.00000000D+00  0.00000000D+00  0.00000000D+00 -0.00000000D+00  0.00000000D+00
 -0.00000000D+00  0.00000000D+00  0.00000000D+00  0.00000000D+00 -0.00000000D+00
  0.00000000D+00 -0.22824820D-07 -0.46369259D-06 -0.00000000D+00  0.21541769D-05
  0.43762766D-04  0.00000000D+00 -0.10735750D-04 -0.21810008D-03 -0.00000000D+00
  0.16820686D-04  0.34171742D-03  0.00000000D+00  0.00000000D+00  0.00000000D+00
 -0.18348081D-07 -0.37274687D-06  0.00000000D+00 -0.00000000D+00  0.00000000D+00
  0.00000000D+00  0.98871613D-07  0.20086070D-05 -0.00000000D+00 -0.00000000D+00
  0.00000000D+00  0.00000000D+00 -0.00000000D+00  0.00000000D+00 -0.00000000D+00
  0.00000000D+00  0.00000000D+00  0.00000000D+00 -0.00000000D+00 -0.00000000D+00
 -0.22824820D-07 -0.46369259D-06  0.00000000D+00  0.21541769D-05  0.43762766D-04