[Molden Format]
[Atoms] AU
E+       1       4     0.00000000     0.00000000     0.00000000
E+       2       4     7.80000000     0.00000000     0.00000000
[GTO]
  1 0
s  1 1.00
   1.0000000000E-04   1.0000000000E+00
s  1 1.00
   3.0000000000E-04   1.0000000000E+00
s  1 1.00
   9.0000000000E-04   1.0000000000E+00
s  1 1.00
   2.7000000000E-03   1.0000000000E+00
s  1 1.00
   8.1000000000E-03   1.0000000000E+00
s  1 1.00
   2.4300000000E-02   1.0000000000E+00
s  1 1.00
   7.2900000000E-02   1.0000000000E+00
s  1 1.00
   2.1870000000E-01   1.0000000000E+00
s  1 1.00
   6.5610000000E-01   1.0000000000E+00
s  1 1.00
   1.9683000000E+00   1.0000000000E+00
p  1 1.00
   1.0000000000E-04   1.0000000000E+00
p  1 1.00
   3.0000000000E-04   1.0000000000E+00
p  1 1.00
   9.0000000000E-04   1.0000000000E+00
p  1 1.00
   2.7000000000E-03   1.0000000000E+00
d  1 1.00
   1.0000000000E-04   1.0000000000E+00
d  1 1.00
   3.0000000000E-04   1.0000000000E+00
 
  2 0
s  1 1.00
   1.0000000000E-04   1.0000000000E+00
s  1 1.00
   3.0000000000E-04   1.0000000000E+00
s  1 1.00
   9.0000000000E-04   1.0000000000E+00
s  1 1.00
   2.7000000000E-03   1.0000000000E+00
s  1 1.00
   8.1000000000E-03   1.0000000000E+00
s  1 1.00
   2.4300000000E-02   1.0000000000E+00
s  1 1.00
   7.2900000000E-02   1.0000000000E+00
s  1 1.00
   2.1870000000E-01   1.0000000000E+00
s  1 1.00
   6.5610000000E-01   1.0000000000E+00
s  1 1.00
   1.9683000000E+00   1.0000000000E+00
p  1 1.00
   1.0000000000E-04   1.0000000000E+00
p  1 1.00
   3.0000000000E-04   1.0000000000E+00
p  1 1.00
   9.0000000000E-04   1.0000000000E+00
p  1 1.00
   2.7000000000E-03   1.0000000000E+00
d  1 1.00
   1.0000000000E-04   1.0000000000E+00
d  1 1.00
   3.0000000000E-04   1.0000000000E+00
 
 
[MO]
Ene=    -1.41548E-02
Spin= Alpha
Occup=   1.0000000000
   1      -0.00201730
   2       0.00226645
   3      -0.00022037
   4      -0.06394963
   5      -0.16871072
   6      -0.29678528
   7      -0.16609193
   8       0.13560697
   9       0.00933926
  10      -0.00012646
  11      -0.00014565
  12      -0.00000000
  13      -0.00000000
  14       0.00015301
  15      -0.00000000
  16      -0.00000000
  17       0.03644189
  18      -0.00000000
  19      -0.00000000
  20      -0.03903341
  21       0.00000000
  22       0.00000000
  23      -0.00030529
  24       0.00063215
  25       0.00063215
  26      -0.00000000
  27       0.00000000
  28       0.00000000
  29       0.00213635
  30      -0.00048038
  31      -0.00048038
  32       0.00000000
  33       0.00000000
  34      -0.00000000
  35      -0.00201730
  36       0.00226645
  37      -0.00022037
  38      -0.06394963
  39      -0.16871072
  40      -0.29678528
  41      -0.16609193
  42       0.13560697
  43       0.00933926
  44      -0.00012646
  45       0.00014565
  46       0.00000000
  47       0.00000000
  48      -0.00015301
  49       0.00000000
  50       0.00000000
  51      -0.03644189
  52       0.00000000
  53       0.00000000
  54       0.03903341
  55      -0.00000000
  56      -0.00000000
  57      -0.00030529
  58       0.00063215
  59       0.00063215
  60       0.00000000
  61      -0.00000000
  62      -0.00000000
  63       0.00213635
  64      -0.00048038
  65      -0.00048038
  66      -0.00000000
  67      -0.00000000
  68       0.00000000
Ene=     2.28109E-03
Spin= Alpha
Occup=   0.0000000000
   1      -0.14923762
   2      -0.32333062
   3       1.14110977
   4      -0.59470984
   5       0.13063661
   6      -0.12434838
   7      -0.00193066
   8       0.01391641
   9       0.00301048
  10      -0.00029849
  11      -0.01275276
  12       0.00000000
  13       0.00000000
  14      -0.05516592
  15       0.00000000
  16       0.00000000
  17       0.06486346
  18       0.00000000
  19      -0.00000000
  20       0.01717031
  21      -0.00000000
  22      -0.00000000
  23       0.01991280
  24       0.02060527
  25       0.02060527
  26       0.00000000
  27      -0.00000000
  28       0.00000000
  29       0.09277470
  30       0.09899115
  31       0.09899115
  32       0.00000000
  33      -0.00000000
  34      -0.00000000
  35      -0.14923762
  36      -0.32333062
  37       1.14110977
  38      -0.59470984
  39       0.13063661
  40      -0.12434838
  41      -0.00193066
  42       0.01391641
  43       0.00301048
  44      -0.00029849
  45       0.01275276
  46      -0.00000000
  47      -0.00000000
  48       0.05516592
  49      -0.00000000
  50      -0.00000000
  51      -0.06486346
  52      -0.00000000
  53       0.00000000
  54      -0.01717031
  55       0.00000000
  56       0.00000000
  57       0.01991280
  58       0.02060527
  59       0.02060527
  60       0.00000000
  61       0.00000000
  62      -0.00000000
  63       0.09277470
  64       0.09899115
  65       0.09899115
  66       0.00000000
  67       0.00000000
  68       0.00000000
Ene=     2.78845E-03
Spin= Alpha
Occup=   0.0000000000
   1       0.00673925
   2       0.01301597
   3       0.09687704
   4       2.88137621
   5      -0.31895814
   6      -0.04774927
   7      -0.04239656
   8       0.03196785
   9       0.00135172
  10       0.00010199
  11      -0.15552763
  12      -0.00000000
  13       0.00000000
  14      -0.13548533
  15       0.00000000
  16       0.00000000
  17       0.67737477
  18      -0.00000000
  19      -0.00000000
  20       0.59180612
  21      -0.00000000
  22       0.00000000
  23      -0.76160385
  24      -0.73129343
  25      -0.73129343
  26      -0.00000000
  27       0.00000000
  28       0.00000000
  29      -1.43425328
  30      -1.46625076
  31      -1.46625076
  32       0.00000000
  33       0.00000000
  34       0.00000000
  35      -0.00673925
  36      -0.01301597
  37      -0.09687704
  38      -2.88137621
  39       0.31895814
  40       0.04774927
  41       0.04239656
  42      -0.03196785
  43      -0.00135172
  44      -0.00010199
  45      -0.15552763
  46       0.00000000
  47      -0.00000000
  48      -0.13548533
  49      -0.00000000
  50      -0.00000000
  51       0.67737477
  52       0.00000000
  53       0.00000000
  54       0.59180612
  55      -0.00000000
  56      -0.00000000
  57       0.76160385
  58       0.73129343
  59       0.73129343
  60      -0.00000000
  61       0.00000000
  62      -0.00000000
  63       1.43425328
  64       1.46625076
  65       1.46625076
  66       0.00000000
  67       0.00000000
  68      -0.00000000
Ene=     3.47091E-03
Spin= Alpha
Occup=   0.0000000000
   1      -0.00000000
   2      -0.00000000
   3       0.00000000
   4       0.00000000
   5      -0.00000000
   6       0.00000000
   7      -0.00000000
   8      -0.00000000
   9       0.00000000
  10      -0.00000000
  11       0.00000000
  12       0.02493050
  13      -0.01010384
  14       0.00000000
  15      -0.11020466
  16       0.04466380
  17      -0.00000000
  18       0.52629958
  19      -0.21329897
  20       0.00000000
  21       0.01449779
  22      -0.00587567
  23       0.00000000
  24       0.00000000
  25      -0.00000000
  26       0.19729767
  27      -0.07996090
  28      -0.00000000
  29       0.00000000
  30       0.00000000
  31       0.00000000
  32      -0.11458341
  33       0.04643842
  34      -0.00000000
  35      -0.00000000
  36      -0.00000000
  37      -0.00000000
  38      -0.00000000
  39       0.00000000
  40      -0.00000000
  41       0.00000000
  42      -0.00000000
  43       0.00000000
  44      -0.00000000
  45       0.00000000
  46       0.02493050
  47      -0.01010384
  48      -0.00000000
  49      -0.11020466
  50       0.04466380
  51       0.00000000
  52       0.52629958
  53      -0.21329897
  54       0.00000000
  55       0.01449779
  56      -0.00587567
  57      -0.00000000
  58      -0.00000000
  59       0.00000000
  60      -0.19729767
  61       0.07996090
  62       0.00000000
  63      -0.00000000
  64      -0.00000000
  65      -0.00000000
  66       0.11458341
  67      -0.04643842
  68       0.00000000
Ene=     3.47091E-03
Spin= Alpha
Occup=   0.0000000000
   1      -0.00000000
   2       0.00000000
   3      -0.00000000
   4      -0.00000000
   5       0.00000000
   6       0.00000000
   7       0.00000000
   8      -0.00000000
   9       0.00000000
  10      -0.00000000
  11      -0.00000000
  12      -0.01010384
  13      -0.02493050
  14      -0.00000000
  15       0.04466380
  16       0.11020466
  17       0.00000000
  18      -0.21329897
  19      -0.52629958
  20      -0.00000000
  21      -0.00587567
  22      -0.01449779
  23       0.00000000
  24       0.00000000
  25       0.00000000
  26      -0.07996090
  27      -0.19729767
  28      -0.00000000
  29       0.00000000
  30      -0.00000000
  31       0.00000000
  32       0.04643842
  33       0.11458341
  34       0.00000000
  35       0.00000000
  36      -0.00000000
  37       0.00000000
  38       0.00000000
  39      -0.00000000
  40      -0.00000000
  41       0.00000000
  42      -0.00000000
  43       0.00000000
  44      -0.00000000
  45       0.00000000
  46      -0.01010384
  47      -0.02493050
  48       0.00000000
  49       0.04466380
  50       0.11020466
  51      -0.00000000
  52      -0.21329897
  53      -0.52629958
  54      -0.00000000
  55      -0.00587567
  56      -0.01449779
  57      -0.00000000
  58      -0.00000000
  59      -0.00000000
  60       0.07996090
  61       0.19729767
  62       0.00000000
  63      -0.00000000
  64       0.00000000
  65      -0.00000000
  66      -0.04643842
  67      -0.11458341
  68      -0.00000000
Ene=     6.55495E-03
Spin= Alpha
Occup=   0.0000000000
   1       0.00750772
   2       0.01545345
   3       0.07960675
   4       3.15148632
   5       0.22790320
   6       0.19386880
   7       0.05957955
   8      -0.05720245
   9      -0.00452065
  10       0.00011258
  11      -0.17326326
  12      -0.00000000
  13       0.00000000
  14      -0.16389616
  15       0.00000000
  16       0.00000000
  17       0.84603158
  18       0.00000000
  19       0.00000000
  20       0.03669089
  21       0.00000000
  22       0.00000000
  23      -0.84842204
  24      -0.81297483
  25      -0.81297483
  26      -0.00000000
  27       0.00000000
  28       0.00000000
  29      -1.62669966
  30      -1.66420350
  31      -1.66420350
  32       0.00000000
  33       0.00000000
  34       0.00000000
  35      -0.00750772
  36      -0.01545345
  37      -0.07960675
  38      -3.15148632
  39      -0.22790320
  40      -0.19386880
  41      -0.05957955
  42       0.05720245
  43       0.00452065
  44      -0.00011258
  45      -0.17326326
  46       0.00000000
  47      -0.00000000
  48      -0.16389616
  49      -0.00000000
  50      -0.00000000
  51       0.84603158
  52      -0.00000000
  53      -0.00000000
  54       0.03669089
  55      -0.00000000
  56      -0.00000000
  57       0.84842204
  58       0.81297483
  59       0.81297483
  60      -0.00000000
  61       0.00000000
  62      -0.00000000
  63       1.62669966
  64       1.66420350
  65       1.66420350
  66       0.00000000
  67       0.00000000
  68      -0.00000000
Ene=     6.68664E-03
Spin= Alpha
Occup=   0.0000000000
   1       0.00000000
   2       0.00000000
   3       0.00000000
   4       0.00000000
   5      -0.00000000
   6       0.00000000
   7       0.00000000
   8      -0.00000000
   9      -0.00000000
  10      -0.00000000
  11      -0.00000000
  12      -0.00011424
  13      -0.00088330
  14      -0.00000000
  15       0.00030241
  16       0.00233820
  17       0.00000000
  18      -0.48787811
  19      -3.77226370
  20       0.00000000
  21      -0.09600533
  22      -0.74231128
  23      -0.00000000
  24      -0.00000000
  25      -0.00000000
  26       0.00451015
  27       0.03487237
  28       0.00000000
  29      -0.00000000
  30      -0.00000000
  31      -0.00000000
  32      -0.01334124
  33      -0.10315418
  34      -0.00000000
  35       0.00000000
  36       0.00000000
  37      -0.00000000
  38      -0.00000000
  39      -0.00000000
  40      -0.00000000
  41      -0.00000000
  42       0.00000000
  43       0.00000000
  44      -0.00000000
  45      -0.00000000
  46       0.00011424
  47       0.00088330
  48       0.00000000
  49      -0.00030241
  50      -0.00233820
  51      -0.00000000
  52       0.48787811
  53       3.77226370
  54       0.00000000
  55       0.09600533
  56       0.74231128
  57       0.00000000
  58       0.00000000
  59       0.00000000
  60       0.00451015
  61       0.03487237
  62      -0.00000000
  63       0.00000000
  64       0.00000000
  65       0.00000000
  66      -0.01334124
  67      -0.10315418
  68       0.00000000
Ene=     6.68664E-03
Spin= Alpha
Occup=   0.0000000000
   1       0.00000000
   2       0.00000000
   3      -0.00000000
   4      -0.00000000
   5       0.00000000
   6      -0.00000000
   7       0.00000000
   8      -0.00000000
   9       0.00000000
  10      -0.00000000
  11       0.00000000
  12      -0.00088330
  13       0.00011424
  14       0.00000000
  15       0.00233820
  16      -0.00030241
  17       0.00000000
  18      -3.77226370
  19       0.48787811
  20       0.00000000
  21      -0.74231128
  22       0.09600533
  23      -0.00000000
  24      -0.00000000
  25      -0.00000000
  26       0.03487237
  27      -0.00451015
  28       0.00000000
  29      -0.00000000
  30      -0.00000000
  31      -0.00000000
  32      -0.10315418
  33       0.01334124
  34      -0.00000000
  35       0.00000000
  36       0.00000000
  37      -0.00000000
  38       0.00000000
  39      -0.00000000
  40       0.00000000
  41       0.00000000
  42      -0.00000000
  43      -0.00000000
  44      -0.00000000
  45      -0.00000000
  46       0.00088330
  47      -0.00011424
  48      -0.00000000
  49      -0.00233820
  50       0.00030241
  51      -0.00000000
  52       3.77226370
  53      -0.48787811
  54      -0.00000000
  55       0.74231128
  56      -0.09600533
  57       0.00000000
  58       0.00000000
  59       0.00000000
  60       0.03487237
  61      -0.00451015
  62      -0.00000000
  63       0.00000000
  64      -0.00000000
  65      -0.00000000
  66      -0.10315418
  67       0.01334124
  68       0.00000000
Ene=     6.71973E-03
Spin= Alpha
Occup=   0.0000000000
   1      -0.25773809
   2      -0.52051241
   3       0.45957346
   4       0.52109713
   5      -0.01057407
   6      -0.00228833
   7      -0.00378732
   8       0.00255580
   9      -0.00004621
  10       0.00003177
  11      -0.02376569
  12       0.00000000
  13       0.00000000
  14      -0.08506217
  15       0.00000000
  16       0.00000000
  17      -3.16230242
  18      -0.00000000
  19      -0.00000000
  20      -0.68631179
  21      -0.00000000
  22      -0.00000000
  23       0.06860025
  24       0.02010067
  25       0.02010067
  26       0.00000000
  27       0.00000000
  28      -0.00000000
  29       0.05183437
  30       0.21012909
  31       0.21012909
  32      -0.00000000
  33      -0.00000000
  34       0.00000000
  35      -0.25773809
  36      -0.52051241
  37       0.45957346
  38       0.52109713
  39      -0.01057407
  40      -0.00228833
  41      -0.00378732
  42       0.00255580
  43      -0.00004621
  44       0.00003177
  45       0.02376569
  46      -0.00000000
  47      -0.00000000
  48       0.08506217
  49      -0.00000000
  50      -0.00000000
  51       3.16230242
  52       0.00000000
  53       0.00000000
  54       0.68631179
  55       0.00000000
  56       0.00000000
  57       0.06860025
  58       0.02010067
  59       0.02010067
  60       0.00000000
  61      -0.00000000
  62       0.00000000
  63       0.05183437
  64       0.21012909
  65       0.21012909
  66      -0.00000000
  67      -0.00000000
  68      -0.00000000
Ene=     8.91771E-03
Spin= Alpha
Occup=   0.0000000000
   1       0.00000000
   2       0.00000000
   3       0.00000000
   4       0.00000000
   5      -0.00000000
   6       0.00000000
   7      -0.00000000
   8       0.00000000
   9       0.00000000
  10      -0.00000000
  11       0.00000000
  12       0.02508557
  13      -0.00425001
  14       0.00000000
  15      -0.11253560
  16       0.01906582
  17       0.00000000
  18       0.62564166
  19      -0.10599641
  20       0.00000000
  21      -0.74260165
  22       0.12581181
  23       0.00000000
  24       0.00000000
  25       0.00000000
  26       0.18449298
  27      -0.03125686
  28       0.00000000
  29       0.00000000
  30       0.00000000
  31       0.00000000
  32      -0.10294587
  33       0.01744112
  34      -0.00000000
  35       0.00000000
  36       0.00000000
  37      -0.00000000
  38      -0.00000000
  39       0.00000000
  40      -0.00000000
  41      -0.00000000
  42       0.00000000
  43       0.00000000
  44      -0.00000000
  45       0.00000000
  46       0.02508557
  47      -0.00425001
  48      -0.00000000
  49      -0.11253560
  50       0.01906582
  51      -0.00000000
  52       0.62564166
  53      -0.10599641
  54       0.00000000
  55      -0.74260165
  56       0.12581181
  57      -0.00000000
  58      -0.00000000
  59      -0.00000000
  60      -0.18449298
  61       0.03125686
  62      -0.00000000
  63      -0.00000000
  64      -0.00000000
  65      -0.00000000
  66       0.10294587
  67      -0.01744112
  68       0.00000000
Ene=     8.91771E-03
Spin= Alpha
Occup=   0.0000000000
   1      -0.00000000
   2      -0.00000000
   3       0.00000000
   4       0.00000000
   5      -0.00000000
   6       0.00000000
   7      -0.00000000
   8       0.00000000
   9      -0.00000000
  10       0.00000000
  11       0.00000000
  12       0.00425001
  13       0.02508557
  14       0.00000000
  15      -0.01906582
  16      -0.11253560
  17       0.00000000
  18       0.10599641
  19       0.62564166
  20       0.00000000
  21      -0.12581181
  22      -0.74260165
  23       0.00000000
  24       0.00000000
  25       0.00000000
  26       0.03125686
  27       0.18449298
  28       0.00000000
  29       0.00000000
  30       0.00000000
  31       0.00000000
  32      -0.01744112
  33      -0.10294587
  34      -0.00000000
  35      -0.00000000
  36       0.00000000
  37      -0.00000000
  38      -0.00000000
  39       0.00000000
  40      -0.00000000
  41       0.00000000
  42      -0.00000000
  43       0.00000000
  44      -0.00000000
  45       0.00000000
  46       0.00425001
  47       0.02508557
  48      -0.00000000
  49      -0.01906582
  50      -0.11253560
  51      -0.00000000
  52       0.10599641
  53       0.62564166
  54       0.00000000
  55      -0.12581181
  56      -0.74260165
  57      -0.00000000
  58      -0.00000000
  59      -0.00000000
  60      -0.03125686
  61      -0.18449298
  62      -0.00000000
  63      -0.00000000
  64      -0.00000000
  65      -0.00000000
  66       0.01744112
  67       0.10294587
  68       0.00000000
Ene=     9.68907E-03
Spin= Alpha
Occup=   0.0000000000
   1       0.10871898
   2      -0.14098982
   3       0.88325166
   4      -1.52121369
   5       0.76939657
   6      -0.02583622
   7       0.10023032
   8      -0.05943383
   9      -0.00027749
  10      -0.00050489
  11       0.00935875
  12       0.00000000
  13       0.00000000
  14      -0.01538469
  15       0.00000000
  16       0.00000000
  17      -0.65252429
  18       0.00000000
  19      -0.00000000
  20       0.27211894
  21      -0.00000000
  22      -0.00000000
  23      -0.00881293
  24      -0.02225933
  25      -0.02225933
  26       0.00000000
  27       0.00000000
  28      -0.00000000
  29      -0.04233568
  30      -0.00452919
  31      -0.00452919
  32       0.00000000
  33      -0.00000000
  34       0.00000000
  35       0.10871898
  36      -0.14098982
  37       0.88325166
  38      -1.52121370
  39       0.76939657
  40      -0.02583622
  41       0.10023032
  42      -0.05943383
  43      -0.00027749
  44      -0.00050489
  45      -0.00935875
  46      -0.00000000
  47      -0.00000000
  48       0.01538469
  49      -0.00000000
  50      -0.00000000
  51       0.65252429
  52      -0.00000000
  53       0.00000000
  54      -0.27211894
  55      -0.00000000
  56       0.00000000
  57      -0.00881293
  58      -0.02225933
  59      -0.02225933
  60      -0.00000000
  61      -0.00000000
  62       0.00000000
  63      -0.04233568
  64      -0.00452919
  65      -0.00452919
  66      -0.00000000
  67       0.00000000
  68      -0.00000000
Ene=     1.29997E-02
Spin= Alpha
Occup=   0.0000000000
   1      -0.00811315
   2      -0.01624518
   3       8.27313137
   4      97.08318819
   5      -0.55238979
   6       0.16451330
   7      -0.00401461
   8      -0.01271510
   9      -0.00307362
  10       0.00031473
  11       0.18446891
  12      -0.00000000
  13       0.00000000
  14       0.18558021
  15       0.00000000
  16       0.00000000
  17       0.02704417
  18       0.00000000
  19      -0.00000000
  20      20.98884455
  21      -0.00000000
  22       0.00000000
  23       1.02752336
  24       0.79344871
  25       0.79344871
  26      -0.00000000
  27       0.00000000
  28       0.00000000
  29       1.67858295
  30       1.93979156
  31       1.93979156
  32       0.00000000
  33       0.00000000
  34      -0.00000000
  35       0.00811315
  36       0.01624518
  37      -8.27313137
  38     -97.08318819
  39       0.55238979
  40      -0.16451330
  41       0.00401461
  42       0.01271510
  43       0.00307362
  44      -0.00031473
  45       0.18446891
  46       0.00000000
  47      -0.00000000
  48       0.18558021
  49      -0.00000000
  50      -0.00000000
  51       0.02704417
  52      -0.00000000
  53       0.00000000
  54      20.98884455
  55       0.00000000
  56      -0.00000000
  57      -1.02752336
  58      -0.79344871
  59      -0.79344871
  60      -0.00000000
  61       0.00000000
  62      -0.00000000
  63      -1.67858295
  64      -1.93979156
  65      -1.93979156
  66       0.00000000
  67       0.00000000
  68       0.00000000
Ene=     1.45551E-02
Spin= Alpha
Occup=   0.0000000000
   1      -0.00000000
   2      -0.00000000
   3      -0.00000000
   4      -0.00000000
   5      -0.00000000
   6      -0.00000000
   7      -0.00000000
   8       0.00000000
   9       0.00000000
  10       0.00000000
  11      -0.00000000
  12       0.00002353
  13      -0.00071012
  14      -0.00000000
  15      -0.00001880
  16       0.00056735
  17      -0.00000000
  18       0.16490750
  19      -4.97689173
  20      -0.00000000
  21      -0.10552370
  22       3.18469469
  23      -0.00000000
  24      -0.00000000
  25       0.00000000
  26      -0.00122687
  27       0.03702693
  28       0.00000000
  29      -0.00000000
  30      -0.00000000
  31      -0.00000000
  32       0.00370891
  33      -0.11193465
  34      -0.00000000
  35      -0.00000000
  36      -0.00000000
  37       0.00000000
  38       0.00000000
  39      -0.00000000
  40       0.00000000
  41      -0.00000000
  42      -0.00000000
  43      -0.00000000
  44       0.00000000
  45       0.00000000
  46      -0.00002353
  47       0.00071012
  48       0.00000000
  49       0.00001880
  50      -0.00056735
  51       0.00000000
  52      -0.16490750
  53       4.97689173
  54      -0.00000000
  55       0.10552370
  56      -3.18469469
  57       0.00000000
  58       0.00000000
  59      -0.00000000
  60      -0.00122687
  61       0.03702693
  62      -0.00000000
  63       0.00000000
  64       0.00000000
  65       0.00000000
  66       0.00370891
  67      -0.11193465
  68       0.00000000
Ene=     1.45551E-02
Spin= Alpha
Occup=   0.0000000000
   1      -0.00000000
   2      -0.00000000
   3      -0.00000000
   4      -0.00000000
   5      -0.00000000
   6      -0.00000000
   7      -0.00000000
   8       0.00000000
   9       0.00000000
  10       0.00000000
  11      -0.00000000
  12       0.00071012
  13       0.00002353
  14       0.00000000
  15      -0.00056735
  16      -0.00001880
  17      -0.00000000
  18       4.97689173
  19       0.16490750
  20      -0.00000000
  21      -3.18469469
  22      -0.10552370
  23      -0.00000000
  24      -0.00000000
  25      -0.00000000
  26      -0.03702693
  27      -0.00122687
  28      -0.00000000
  29      -0.00000000
  30      -0.00000000
  31      -0.00000000
  32       0.11193465
  33       0.00370891
  34       0.00000000
  35      -0.00000000
  36      -0.00000000
  37       0.00000000
  38       0.00000000
  39      -0.00000000
  40       0.00000000
  41       0.00000000
  42      -0.00000000
  43      -0.00000000
  44       0.00000000
  45       0.00000000
  46      -0.00071012
  47      -0.00002353
  48      -0.00000000
  49       0.00056735
  50       0.00001880
  51       0.00000000
  52      -4.97689173
  53      -0.16490750
  54      -0.00000000
  55       3.18469469
  56       0.10552370
  57       0.00000000
  58       0.00000000
  59       0.00000000
  60      -0.03702693
  61      -0.00122687
  62       0.00000000
  63       0.00000000
  64       0.00000000
  65       0.00000000
  66       0.11193465
  67       0.00370891
  68      -0.00000000
Ene=     1.48665E-02
Spin= Alpha
Occup=   0.0000000000
   1      -0.51858471
   2      -0.91076378
   3       1.33487794
   4       0.00160307
   5      -0.64277009
   6       0.11428463
   7      -0.05691225
   8       0.02407899
   9      -0.00170747
  10       0.00045534
  11      -0.04595320
  12       0.00000000
  13       0.00000000
  14      -0.15785834
  15       0.00000000
  16       0.00000000
  17      -4.08953185
  18      -0.00000000
  19       0.00000000
  20       2.56829906
  21       0.00000000
  22      -0.00000000
  23       0.10575155
  24       0.05829554
  25       0.05829554
  26      -0.00000000
  27      -0.00000000
  28      -0.00000000
  29       0.18331262
  30       0.35565282
  31       0.35565282
  32       0.00000000
  33       0.00000000
  34       0.00000000
  35      -0.51858471
  36      -0.91076378
  37       1.33487794
  38       0.00160307
  39      -0.64277009
  40       0.11428463
  41      -0.05691225
  42       0.02407899
  43      -0.00170747
  44       0.00045534
  45       0.04595320
  46      -0.00000000
  47      -0.00000000
  48       0.15785834
  49      -0.00000000
  50      -0.00000000
  51       4.08953185
  52       0.00000000
  53      -0.00000000
  54      -2.56829906
  55      -0.00000000
  56       0.00000000
  57       0.10575155
  58       0.05829554
  59       0.05829554
  60       0.00000000
  61       0.00000000
  62       0.00000000
  63       0.18331262
  64       0.35565282
  65       0.35565282
  66      -0.00000000
  67       0.00000000
  68      -0.00000000
Ene=     1.76305E-02
Spin= Alpha
Occup=   0.0000000000
   1       0.00497761
   2       0.00165498
   3      -3.50662536
   4     -42.06478763
   5       2.44244793
   6      -0.05636546
   7       0.16129775
   8      -0.09715302
   9      -0.00021860
  10      -0.00087589
  11      -0.11238126
  12       0.00000000
  13      -0.00000000
  14      -0.00045910
  15      -0.00000000
  16      -0.00000000
  17      -0.58011485
  18       0.00000000
  19      -0.00000000
  20      -7.97192966
  21      -0.00000000
  22       0.00000000
  23      -0.66752979
  24      -0.53351753
  25      -0.53351753
  26       0.00000000
  27      -0.00000000
  28      -0.00000000
  29      -0.73825599
  30      -0.88368897
  31      -0.88368897
  32      -0.00000000
  33      -0.00000000
  34       0.00000000
  35      -0.00497761
  36      -0.00165498
  37       3.50662536
  38      42.06478763
  39      -2.44244793
  40       0.05636546
  41      -0.16129775
  42       0.09715302
  43       0.00021860
  44       0.00087589
  45      -0.11238126
  46      -0.00000000
  47       0.00000000
  48      -0.00045910
  49       0.00000000
  50       0.00000000
  51      -0.58011485
  52      -0.00000000
  53       0.00000000
  54      -7.97192966
  55       0.00000000
  56      -0.00000000
  57       0.66752979
  58       0.53351753
  59       0.53351753
  60       0.00000000
  61      -0.00000000
  62       0.00000000
  63       0.73825599
  64       0.88368897
  65       0.88368897
  66      -0.00000000
  67      -0.00000000
  68      -0.00000000
Ene=     2.56408E-02
Spin= Alpha
Occup=   0.0000000000
   1       2.97714905
   2       2.99887752
   3      -3.95402887
   4       1.61426131
   5      -0.17619182
   6      -0.20952199
   7      -0.00234434
   8       0.02140270
   9       0.00440885
  10      -0.00041184
  11       0.25872358
  12      -0.00000000
  13      -0.00000000
  14       0.57848858
  15      -0.00000000
  16       0.00000000
  17       0.58011155
  18       0.00000000
  19      -0.00000000
  20      -0.38951050
  21      -0.00000000
  22       0.00000000
  23      -0.42452006
  24      -0.45556170
  25      -0.45556170
  26      -0.00000000
  27      -0.00000000
  28      -0.00000000
  29      -1.38190947
  30      -1.42312511
  31      -1.42312511
  32       0.00000000
  33       0.00000000
  34       0.00000000
  35       2.97714905
  36       2.99887752
  37      -3.95402887
  38       1.61426131
  39      -0.17619182
  40      -0.20952199
  41      -0.00234434
  42       0.02140270
  43       0.00440885
  44      -0.00041184
  45      -0.25872358
  46       0.00000000
  47       0.00000000
  48      -0.57848858
  49       0.00000000
  50      -0.00000000
  51      -0.58011155
  52      -0.00000000
  53       0.00000000
  54       0.38951050
  55       0.00000000
  56      -0.00000000
  57      -0.42452006
  58      -0.45556170
  59      -0.45556170
  60       0.00000000
  61       0.00000000
  62       0.00000000
  63      -1.38190947
  64      -1.42312511
  65      -1.42312511
  66      -0.00000000
  67      -0.00000000
  68      -0.00000000
Ene=     3.45698E-02
Spin= Alpha
Occup=   0.0000000000
   1      -0.08012477
   2      -0.07093409
   3       1.81344211
   4      11.12188589
   5       0.22297966
   6       0.25798053
   7      -0.00049395
   8      -0.02361114
   9      -0.00494765
  10       0.00046568
  11       1.81857023
  12      -0.00000000