 Molden2AIM, Version 3.1.0 (02/25/2015)           Time: Thu Oct 17 19:53:52 2024
GAUSSIAN             68 MOL ORBITALS     68 PRIMITIVES        2 NUCLEI
  Be   1    (CENTRE  1)   0.00000000  0.00000000  0.00000000  CHARGE =  4.0
  Be   2    (CENTRE  2)  25.20000000  0.00000000  0.00000000  CHARGE =  4.0
CENTRE ASSIGNMENTS    1  1  1  1  1  1  1  1  1  1  1  1  1  1  1  1  1  1  1  1
CENTRE ASSIGNMENTS    1  1  1  1  1  1  1  1  1  1  1  1  1  1  2  2  2  2  2  2
CENTRE ASSIGNMENTS    2  2  2  2  2  2  2  2  2  2  2  2  2  2  2  2  2  2  2  2
CENTRE ASSIGNMENTS    2  2  2  2  2  2  2  2
TYPE ASSIGNMENTS      1  1  1  1  1  1  1  1  1  1  2  3  4  2  3  4  2  3  4  2
TYPE ASSIGNMENTS      3  4  5  6  7  8  9 10  5  6  7  8  9 10  1  1  1  1  1  1
TYPE ASSIGNMENTS      1  1  1  1  2  3  4  2  3  4  2  3  4  2  3  4  5  6  7  8
TYPE ASSIGNMENTS      9 10  5  6  7  8  9 10
EXPONENTS  0.1000000D-03 0.3000000D-03 0.9000000D-03 0.2700000D-02 0.8100000D-02
EXPONENTS  0.2430000D-01 0.7290000D-01 0.2187000D+00 0.6561000D+00 0.1968300D+01
EXPONENTS  0.1000000D-03 0.1000000D-03 0.1000000D-03 0.3000000D-03 0.3000000D-03
EXPONENTS  0.3000000D-03 0.9000000D-03 0.9000000D-03 0.9000000D-03 0.2700000D-02
EXPONENTS  0.2700000D-02 0.2700000D-02 0.1000000D-03 0.1000000D-03 0.1000000D-03
EXPONENTS  0.1000000D-03 0.1000000D-03 0.1000000D-03 0.3000000D-03 0.3000000D-03
EXPONENTS  0.3000000D-03 0.3000000D-03 0.3000000D-03 0.3000000D-03 0.1000000D-03
EXPONENTS  0.3000000D-03 0.9000000D-03 0.2700000D-02 0.8100000D-02 0.2430000D-01
EXPONENTS  0.7290000D-01 0.2187000D+00 0.6561000D+00 0.1968300D+01 0.1000000D-03
EXPONENTS  0.1000000D-03 0.1000000D-03 0.3000000D-03 0.3000000D-03 0.3000000D-03
EXPONENTS  0.9000000D-03 0.9000000D-03 0.9000000D-03 0.2700000D-02 0.2700000D-02
EXPONENTS  0.2700000D-02 0.1000000D-03 0.1000000D-03 0.1000000D-03 0.1000000D-03
EXPONENTS  0.1000000D-03 0.1000000D-03 0.3000000D-03 0.3000000D-03 0.3000000D-03
EXPONENTS  0.3000000D-03 0.3000000D-03 0.3000000D-03
MO    1     MO 0.0        OCC NO =    1.0000000  ORB. ENERGY =   -0.003190
  0.32405756D-04 -0.42705596D-04 -0.99782015D-04 -0.23013162D-02 -0.40129498D-02
 -0.75282552D-02 -0.10726752D-01  0.19908421D-01  0.31372834D-02 -0.11511842D-03
 -0.31029962D-05 -0.00000000D+00  0.00000000D+00  0.32446467D-05  0.00000000D+00
 -0.00000000D+00 -0.66465670D-05 -0.00000000D+00  0.00000000D+00  0.96187574D-05
  0.00000000D+00 -0.00000000D+00 -0.76705351D-08  0.23380991D-09  0.23380991D-09
 -0.00000000D+00  0.00000000D+00 -0.00000000D+00  0.25933532D-07  0.48984259D-08
  0.48984259D-08  0.00000000D+00 -0.00000000D+00  0.00000000D+00  0.32405756D-04
 -0.42705596D-04 -0.99782015D-04 -0.23013162D-02 -0.40129498D-02 -0.75282552D-02
 -0.10726752D-01  0.19908421D-01  0.31372834D-02 -0.11511842D-03  0.31029962D-05
  0.00000000D+00 -0.00000000D+00 -0.32446467D-05 -0.00000000D+00  0.00000000D+00
  0.66465670D-05  0.00000000D+00 -0.00000000D+00 -0.96187574D-05 -0.00000000D+00
  0.00000000D+00 -0.76705351D-08  0.23380991D-09  0.23380991D-09 -0.00000000D+00
  0.00000000D+00  0.00000000D+00  0.25933532D-07  0.48984259D-08  0.48984259D-08
  0.00000000D+00 -0.00000000D+00 -0.00000000D+00
MO    2     MO 0.0        OCC NO =    0.0000000  ORB. ENERGY =   -0.001411
  0.54793509D-06  0.75220424D-05  0.12610348D-02  0.29972223D-02  0.45132502D-02
  0.85387457D-02  0.11405687D-01 -0.21439740D-01 -0.35016524D-02  0.16139082D-03
 -0.74088299D-07 -0.00000000D+00 -0.00000000D+00 -0.83194147D-06  0.00000000D+00
  0.00000000D+00  0.34092123D-04 -0.00000000D+00 -0.00000000D+00 -0.63707510D-04
 -0.00000000D+00  0.00000000D+00 -0.22555331D-08 -0.44247013D-09 -0.44247013D-09
 -0.00000000D+00 -0.00000000D+00  0.00000000D+00 -0.20263079D-07 -0.37172135D-07
 -0.37172135D-07  0.00000000D+00  0.00000000D+00 -0.00000000D+00 -0.54793509D-06
 -0.75220424D-05 -0.12610348D-02 -0.29972223D-02 -0.45132502D-02 -0.85387457D-02
 -0.11405687D-01  0.21439740D-01  0.35016524D-02 -0.16139082D-03 -0.74088299D-07
  0.00000000D+00  0.00000000D+00 -0.83194147D-06 -0.00000000D+00 -0.00000000D+00
  0.34092123D-04  0.00000000D+00  0.00000000D+00 -0.63707510D-04 -0.00000000D+00
  0.00000000D+00  0.22555331D-08  0.44247013D-09  0.44247013D-09 -0.00000000D+00
 -0.00000000D+00 -0.00000000D+00  0.20263079D-07  0.37172135D-07  0.37172135D-07
  0.00000000D+00  0.00000000D+00 -0.00000000D+00
MO    3     MO 0.0        OCC NO =    0.0000000  ORB. ENERGY =    0.003845
  0.64659366D-03 -0.21803386D-03 -0.42579648D-02  0.76838303D-02 -0.68053057D-03
  0.53012406D-02  0.29395944D-02 -0.72044114D-02 -0.18441863D-02  0.26916629D-03
 -0.43717872D-04 -0.00000000D+00  0.00000000D+00  0.55925387D-04 -0.00000000D+00
  0.00000000D+00 -0.11313050D-03 -0.00000000D+00  0.00000000D+00  0.72775450D-04
  0.00000000D+00 -0.00000000D+00 -0.11437560D-06 -0.31034072D-08 -0.31034072D-08
 -0.00000000D+00  0.00000000D+00  0.00000000D+00  0.28707931D-06 -0.82926758D-07
 -0.82926758D-07 -0.00000000D+00  0.00000000D+00 -0.00000000D+00  0.64659366D-03
 -0.21803386D-03 -0.42579648D-02  0.76838303D-02 -0.68053057D-03  0.53012406D-02
  0.29395944D-02 -0.72044114D-02 -0.18441863D-02  0.26916629D-03  0.43717872D-04
  0.00000000D+00 -0.00000000D+00 -0.55925387D-04  0.00000000D+00 -0.00000000D+00
  0.11313050D-03  0.00000000D+00 -0.00000000D+00 -0.72775450D-04  0.00000000D+00
 -0.00000000D+00 -0.11437560D-06 -0.31034072D-08 -0.31034072D-08 -0.00000000D+00
  0.00000000D+00 -0.00000000D+00  0.28707931D-06 -0.82926758D-07 -0.82926758D-07
 -0.00000000D+00  0.00000000D+00  0.00000000D+00
MO    4     MO 0.0        OCC NO =    0.0000000  ORB. ENERGY =    0.004361
 -0.00000000D+00  0.00000000D+00 -0.00000000D+00  0.00000000D+00  0.00000000D+00
  0.00000000D+00  0.00000000D+00 -0.00000000D+00 -0.00000000D+00  0.00000000D+00
  0.00000000D+00 -0.39228948D-06  0.13976183D-06 -0.00000000D+00  0.57894676D-05
 -0.20626260D-05  0.00000000D+00 -0.92098880D-04  0.32812269D-04 -0.00000000D+00
 -0.17257173D-03  0.61482510D-04  0.00000000D+00 -0.00000000D+00 -0.00000000D+00
 -0.84318702D-08  0.30040422D-08 -0.00000000D+00 -0.00000000D+00 -0.00000000D+00
 -0.00000000D+00 -0.70327337D-08  0.25055690D-08  0.00000000D+00 -0.00000000D+00
  0.00000000D+00 -0.00000000D+00  0.00000000D+00 -0.00000000D+00  0.00000000D+00
  0.00000000D+00 -0.00000000D+00 -0.00000000D+00  0.00000000D+00 -0.00000000D+00
 -0.39228948D-06  0.13976183D-06  0.00000000D+00  0.57894676D-05 -0.20626260D-05
  0.00000000D+00 -0.92098880D-04  0.32812269D-04 -0.00000000D+00 -0.17257173D-03
  0.61482510D-04  0.00000000D+00 -0.00000000D+00 -0.00000000D+00  0.84318702D-08
 -0.30040422D-08  0.00000000D+00 -0.00000000D+00 -0.00000000D+00 -0.00000000D+00
  0.70327337D-08 -0.25055690D-08 -0.00000000D+00
MO    5     MO 0.0        OCC NO =    0.0000000  ORB. ENERGY =    0.004361
  0.00000000D+00 -0.00000000D+00  0.00000000D+00 -0.00000000D+00  0.00000000D+00
 -0.00000000D+00 -0.00000000D+00  0.00000000D+00 -0.00000000D+00  0.00000000D+00
 -0.00000000D+00 -0.13976183D-06 -0.39228948D-06  0.00000000D+00  0.20626260D-05
  0.57894676D-05  0.00000000D+00 -0.32812269D-04 -0.92098880D-04 -0.00000000D+00
 -0.61482510D-04 -0.17257173D-03 -0.00000000D+00  0.00000000D+00  0.00000000D+00
 -0.30040422D-08 -0.84318702D-08  0.00000000D+00  0.00000000D+00  0.00000000D+00
  0.00000000D+00 -0.25055690D-08 -0.70327337D-08 -0.00000000D+00  0.00000000D+00
 -0.00000000D+00 -0.00000000D+00 -0.00000000D+00 -0.00000000D+00 -0.00000000D+00
  0.00000000D+00 -0.00000000D+00  0.00000000D+00 -0.00000000D+00  0.00000000D+00
 -0.13976183D-06 -0.39228948D-06 -0.00000000D+00  0.20626260D-05  0.57894676D-05
  0.00000000D+00 -0.32812269D-04 -0.92098880D-04 -0.00000000D+00 -0.61482510D-04
 -0.17257173D-03 -0.00000000D+00  0.00000000D+00  0.00000000D+00  0.30040422D-08
  0.84318702D-08 -0.00000000D+00  0.00000000D+00  0.00000000D+00  0.00000000D+00
  0.25055690D-08  0.70327337D-08  0.00000000D+00
MO    6     MO 0.0        OCC NO =    0.0000000  ORB. ENERGY =    0.006750
  0.11475085D-04 -0.17889634D-05 -0.19446815D-01  0.16813072D-02  0.78714662D-02
  0.23704100D-02  0.79109067D-02 -0.12844117D-01 -0.13503372D-02 -0.15479401D-03
 -0.16487523D-05  0.00000000D+00 -0.00000000D+00 -0.12104356D-06  0.00000000D+00
  0.00000000D+00 -0.33823191D-03 -0.00000000D+00 -0.00000000D+00  0.87020210D-04
 -0.00000000D+00 -0.00000000D+00 -0.20960874D-07 -0.35561752D-07 -0.35561752D-07
  0.00000000D+00 -0.00000000D+00 -0.00000000D+00 -0.36710856D-06 -0.19491841D-06
 -0.19491841D-06  0.00000000D+00  0.00000000D+00  0.00000000D+00 -0.11475085D-04
  0.17889634D-05  0.19446815D-01 -0.16813072D-02 -0.78714662D-02 -0.23704100D-02
 -0.79109067D-02  0.12844117D-01  0.13503372D-02  0.15479401D-03 -0.16487523D-05
 -0.00000000D+00  0.00000000D+00 -0.12104356D-06 -0.00000000D+00 -0.00000000D+00
 -0.33823191D-03  0.00000000D+00  0.00000000D+00  0.87020210D-04  0.00000000D+00
  0.00000000D+00  0.20960874D-07  0.35561752D-07  0.35561752D-07  0.00000000D+00
 -0.00000000D+00  0.00000000D+00  0.36710856D-06  0.19491841D-06  0.19491841D-06
  0.00000000D+00  0.00000000D+00 -0.00000000D+00
MO    7     MO 0.0        OCC NO =    0.0000000  ORB. ENERGY =    0.007153
  0.38221482D-03 -0.51877249D-03 -0.16949717D-03  0.50813473D-02 -0.42960650D-02
  0.94452902D-03 -0.23021054D-02  0.29274070D-02 -0.24123277D-04  0.14272552D-03
 -0.32933602D-04 -0.00000000D+00  0.00000000D+00  0.35562814D-04  0.00000000D+00
 -0.00000000D+00 -0.61554273D-04 -0.00000000D+00  0.00000000D+00 -0.50854962D-03
 -0.00000000D+00  0.00000000D+00 -0.82866247D-07  0.10827769D-08  0.10827769D-08
 -0.00000000D+00  0.00000000D+00  0.00000000D+00  0.27139940D-06  0.36838798D-07
  0.36838798D-07  0.00000000D+00 -0.00000000D+00 -0.00000000D+00  0.38221482D-03
 -0.51877249D-03 -0.16949717D-03  0.50813473D-02 -0.42960650D-02  0.94452902D-03
 -0.23021054D-02  0.29274070D-02 -0.24123277D-04  0.14272552D-03  0.32933602D-04
  0.00000000D+00 -0.00000000D+00 -0.35562814D-04 -0.00000000D+00  0.00000000D+00
  0.61554273D-04  0.00000000D+00 -0.00000000D+00  0.50854962D-03 -0.00000000D+00
 -0.00000000D+00 -0.82866247D-07  0.10827769D-08  0.10827769D-08 -0.00000000D+00
  0.00000000D+00 -0.00000000D+00  0.27139940D-06  0.36838798D-07  0.36838798D-07
  0.00000000D+00 -0.00000000D+00  0.00000000D+00
MO    8     MO 0.0        OCC NO =    0.0000000  ORB. ENERGY =    0.007201
  0.00000000D+00 -0.00000000D+00 -0.00000000D+00 -0.00000000D+00  0.00000000D+00
 -0.00000000D+00  0.00000000D+00 -0.00000000D+00 -0.00000000D+00 -0.00000000D+00
  0.00000000D+00 -0.13849575D-04  0.10532952D-03 -0.00000000D+00  0.12020454D-04
 -0.91418595D-04  0.00000000D+00 -0.17763745D-04  0.13509777D-03  0.00000000D+00
 -0.76098233D-04  0.57874635D-03 -0.00000000D+00 -0.00000000D+00 -0.00000000D+00
 -0.34791678D-07  0.26459952D-06  0.00000000D+00 -0.00000000D+00  0.00000000D+00
  0.00000000D+00  0.77765380D-07 -0.59142534D-06 -0.00000000D+00 -0.00000000D+00
  0.00000000D+00  0.00000000D+00 -0.00000000D+00  0.00000000D+00 -0.00000000D+00
  0.00000000D+00  0.00000000D+00  0.00000000D+00 -0.00000000D+00  0.00000000D+00
  0.13849575D-04 -0.10532952D-03 -0.00000000D+00 -0.12020454D-04  0.91418595D-04
 -0.00000000D+00  0.17763745D-04 -0.13509777D-03 -0.00000000D+00  0.76098233D-04
 -0.57874635D-03 -0.00000000D+00  0.00000000D+00  0.00000000D+00 -0.34791678D-07
  0.26459952D-06 -0.00000000D+00  0.00000000D+00  0.00000000D+00  0.00000000D+00
  0.77765380D-07 -0.59142534D-06  0.00000000D+00
MO    9     MO 0.0        OCC NO =    0.0000000  ORB. ENERGY =    0.007201
  0.00000000D+00  0.00000000D+00  0.00000000D+00  0.00000000D+00 -0.00000000D+00
 -0.00000000D+00 -0.00000000D+00  0.00000000D+00  0.00000000D+00 -0.00000000D+00
 -0.00000000D+00 -0.10532952D-03 -0.13849575D-04  0.00000000D+00  0.91418595D-04
  0.12020454D-04 -0.00000000D+00 -0.13509777D-03 -0.17763745D-04 -0.00000000D+00
 -0.57874635D-03 -0.76098233D-04 -0.00000000D+00  0.00000000D+00  0.00000000D+00
 -0.26459952D-06 -0.34791678D-07  0.00000000D+00  0.00000000D+00  0.00000000D+00
  0.00000000D+00  0.59142534D-06  0.77765380D-07 -0.00000000D+00 -0.00000000D+00
 -0.00000000D+00  0.00000000D+00 -0.00000000D+00  0.00000000D+00 -0.00000000D+00
  0.00000000D+00 -0.00000000D+00  0.00000000D+00 -0.00000000D+00  0.00000000D+00
  0.10532952D-03  0.13849575D-04  0.00000000D+00 -0.91418595D-04 -0.12020454D-04
  0.00000000D+00  0.13509777D-03  0.17763745D-04  0.00000000D+00  0.57874635D-03
  0.76098233D-04 -0.00000000D+00  0.00000000D+00  0.00000000D+00 -0.26459952D-06
 -0.34791678D-07 -0.00000000D+00 -0.00000000D+00  0.00000000D+00  0.00000000D+00
  0.59142534D-06  0.77765380D-07  0.00000000D+00
MO   10     MO 0.0        OCC NO =    0.0000000  ORB. ENERGY =    0.010928
  0.00000000D+00  0.00000000D+00 -0.00000000D+00 -0.00000000D+00 -0.00000000D+00
 -0.00000000D+00 -0.00000000D+00  0.00000000D+00  0.00000000D+00  0.00000000D+00
 -0.00000000D+00  0.49294887D-06  0.47188058D-06 -0.00000000D+00 -0.72636406D-05
 -0.69531989D-05 -0.00000000D+00  0.13613333D-03  0.13031510D-03 -0.00000000D+00
 -0.56738205D-03 -0.54313261D-03 -0.00000000D+00 -0.00000000D+00 -0.00000000D+00
  0.78123752D-08  0.74784784D-08 -0.00000000D+00 -0.00000000D+00  0.00000000D+00
  0.00000000D+00  0.28217904D-07  0.27011898D-07  0.00000000D+00  0.00000000D+00
  0.00000000D+00  0.00000000D+00  0.00000000D+00  0.00000000D+00  0.00000000D+00
  0.00000000D+00 -0.00000000D+00 -0.00000000D+00  0.00000000D+00  0.00000000D+00
  0.49294887D-06  0.47188058D-06  0.00000000D+00 -0.72636406D-05 -0.69531989D-05
 -0.00000000D+00  0.13613333D-03  0.13031510D-03 -0.00000000D+00 -0.56738205D-03
 -0.54313261D-03 -0.00000000D+00  0.00000000D+00  0.00000000D+00 -0.78123752D-08
 -0.74784784D-08  0.00000000D+00  0.00000000D+00 -0.00000000D+00  0.00000000D+00
 -0.28217904D-07 -0.27011898D-07 -0.00000000D+00
MO   11     MO 0.0        OCC NO =    0.0000000  ORB. ENERGY =    0.010928
  0.00000000D+00  0.00000000D+00 -0.00000000D+00 -0.00000000D+00  0.00000000D+00
 -0.00000000D+00 -0.00000000D+00  0.00000000D+00 -0.00000000D+00  0.00000000D+00
 -0.00000000D+00 -0.47188058D-06  0.49294887D-06 -0.00000000D+00  0.69531989D-05
 -0.72636406D-05 -0.00000000D+00 -0.13031510D-03  0.13613333D-03 -0.00000000D+00
  0.54313261D-03 -0.56738205D-03 -0.00000000D+00 -0.00000000D+00 -0.00000000D+00
 -0.74784784D-08  0.78123752D-08 -0.00000000D+00 -0.00000000D+00  0.00000000D+00
  0.00000000D+00 -0.27011898D-07  0.28217904D-07  0.00000000D+00  0.00000000D+00
  0.00000000D+00  0.00000000D+00  0.00000000D+00  0.00000000D+00  0.00000000D+00
  0.00000000D+00 -0.00000000D+00 -0.00000000D+00  0.00000000D+00  0.00000000D+00
 -0.47188058D-06  0.49294887D-06  0.00000000D+00  0.69531989D-05 -0.72636406D-05
 -0.00000000D+00 -0.13031510D-03  0.13613333D-03 -0.00000000D+00  0.54313261D-03
 -0.56738205D-03 -0.00000000D+00  0.00000000D+00  0.00000000D+00  0.74784784D-08
 -0.78123752D-08  0.00000000D+00  0.00000000D+00 -0.00000000D+00 -0.00000000D+00
  0.27011898D-07 -0.28217904D-07 -0.00000000D+00
MO   12     MO 0.0        OCC NO =    0.0000000  ORB. ENERGY =    0.010963
  0.80336945D-05 -0.50753023D-04 -0.29075190D-01 -0.34638872D-02 -0.48645847D-03
 -0.25041836D-02 -0.15533577D-02  0.36374399D-02  0.88805664D-03 -0.11948866D-03
 -0.11785965D-05  0.00000000D+00 -0.00000000D+00  0.50355792D-05  0.00000000D+00
  0.00000000D+00 -0.58586872D-03  0.00000000D+00 -0.00000000D+00 -0.14932219D-02
 -0.00000000D+00  0.00000000D+00 -0.72642967D-08 -0.32351243D-07 -0.32351243D-07
  0.00000000D+00 -0.00000000D+00 -0.00000000D+00 -0.23535568D-06  0.31099967D-07
  0.31099967D-07  0.00000000D+00  0.00000000D+00  0.00000000D+00 -0.80336945D-05
  0.50753023D-04  0.29075190D-01  0.34638872D-02  0.48645847D-03  0.25041836D-02
  0.15533577D-02 -0.36374399D-02 -0.88805664D-03  0.11948866D-03 -0.11785965D-05
 -0.00000000D+00  0.00000000D+00  0.50355792D-05 -0.00000000D+00 -0.00000000D+00
 -0.58586872D-03  0.00000000D+00 -0.00000000D+00 -0.14932219D-02 -0.00000000D+00
  0.00000000D+00  0.72642967D-08  0.32351243D-07  0.32351243D-07  0.00000000D+00
 -0.00000000D+00  0.00000000D+00  0.23535568D-06 -0.31099967D-07 -0.31099967D-07
  0.00000000D+00  0.00000000D+00 -0.00000000D+00
MO   13     MO 0.0        OCC NO =    0.0000000  ORB. ENERGY =    0.012811
  0.53095237D-03 -0.12391874D-02  0.56618785D-04  0.12826504D-01 -0.23270066D-01
  0.34589191D-02 -0.14190584D-01  0.18892339D-01  0.22069447D-03  0.80745151D-03
 -0.68720109D-04 -0.00000000D+00  0.00000000D+00  0.46560482D-04  0.00000000D+00
 -0.00000000D+00 -0.15575272D-03 -0.00000000D+00  0.00000000D+00  0.28932013D-03
  0.00000000D+00 -0.00000000D+00 -0.16348483D-06  0.11353870D-07  0.11353870D-07
 -0.00000000D+00  0.00000000D+00  0.00000000D+00  0.54235382D-06  0.27047313D-06
  0.27047313D-06  0.00000000D+00 -0.00000000D+00 -0.00000000D+00  0.53095237D-03
 -0.12391874D-02  0.56618785D-04  0.12826504D-01 -0.23270066D-01  0.34589191D-02
 -0.14190584D-01  0.18892339D-01  0.22069447D-03  0.80745151D-03  0.68720109D-04
  0.00000000D+00 -0.00000000D+00 -0.46560482D-04 -0.00000000D+00  0.00000000D+00
  0.15575272D-03  0.00000000D+00 -0.00000000D+00 -0.28932013D-03 -0.00000000D+00
  0.00000000D+00 -0.16348483D-06  0.11353870D-07  0.11353870D-07 -0.00000000D+00
  0.00000000D+00 -0.00000000D+00  0.54235382D-06  0.27047313D-06  0.27047313D-06
  0.00000000D+00 -0.00000000D+00  0.00000000D+00
MO   14     MO 0.0        OCC NO =    0.0000000  ORB. ENERGY =    0.016268
 -0.00000000D+00  0.00000000D+00  0.00000000D+00 -0.00000000D+00  0.00000000D+00
 -0.00000000D+00  0.00000000D+00 -0.00000000D+00 -0.00000000D+00 -0.00000000D+00
  0.00000000D+00 -0.81062861D-04 -0.29466930D-03  0.00000000D+00  0.67836946D-04
  0.24659215D-03  0.00000000D+00 -0.12858455D-03 -0.46741405D-03 -0.00000000D+00
  0.25413702D-03  0.92380626D-03  0.00000000D+00 -0.00000000D+00  0.00000000D+00
 -0.20357273D-06 -0.74000143D-06 -0.00000000D+00  0.00000000D+00  0.00000000D+00
  0.00000000D+00  0.43252092D-06  0.15722445D-05  0.00000000D+00  0.00000000D+00
 -0.00000000D+00 -0.00000000D+00  0.00000000D+00 -0.00000000D+00  0.00000000D+00
 -0.00000000D+00  0.00000000D+00  0.00000000D+00  0.00000000D+00 -0.00000000D+00
  0.81062861D-04  0.29466930D-03  0.00000000D+00 -0.67836946D-04 -0.24659215D-03
 -0.00000000D+00  0.12858455D-03  0.46741405D-03  0.00000000D+00 -0.25413702D-03
 -0.92380626D-03  0.00000000D+00 -0.00000000D+00 -0.00000000D+00 -0.20357273D-06
 -0.74000143D-06  0.00000000D+00 -0.00000000D+00 -0.00000000D+00 -0.00000000D+00
  0.43252092D-06  0.15722445D-05 -0.00000000D+00
MO   15     MO 0.0        OCC NO =    0.0000000  ORB. ENERGY =    0.016268
 -0.00000000D+00  0.00000000D+00  0.00000000D+00 -0.00000000D+00  0.00000000D+00
 -0.00000000D+00  0.00000000D+00 -0.00000000D+00  0.00000000D+00 -0.00000000D+00
  0.00000000D+00  0.29466930D-03 -0.81062861D-04 -0.00000000D+00 -0.24659215D-03
  0.67836946D-04  0.00000000D+00  0.46741405D-03 -0.12858455D-03 -0.00000000D+00
 -0.92380626D-03  0.25413702D-03  0.00000000D+00 -0.00000000D+00 -0.00000000D+00
  0.74000143D-06 -0.20357273D-06 -0.00000000D+00 -0.00000000D+00 -0.00000000D+00
 -0.00000000D+00 -0.15722445D-05  0.43252092D-06  0.00000000D+00  0.00000000D+00
 -0.00000000D+00 -0.00000000D+00  0.00000000D+00 -0.00000000D+00  0.00000000D+00
 -0.00000000D+00  0.00000000D+00 -0.00000000D+00  0.00000000D+00 -0.00000000D+00
 -0.29466930D-03  0.81062861D-04  0.00000000D+00  0.24659215D-03 -0.67836946D-04
 -0.00000000D+00 -0.46741405D-03  0.12858455D-03 -0.00000000D+00  0.92380626D-03
 -0.25413702D-03  0.00000000D+00 -0.00000000D+00 -0.00000000D+00  0.74000143D-06
 -0.20357273D-06  0.00000000D+00 -0.00000000D+00 -0.00000000D+00 -0.00000000D+00
 -0.15722445D-05  0.43252092D-06 -0.00000000D+00
MO   16     MO 0.0        OCC NO =    0.0000000  ORB. ENERGY =    0.016543
  0.10196898D-04  0.57396912D-04 -0.13323110D-01  0.28747458D-01 -0.26758569D-01
  0.52733054D-02 -0.12153205D-01  0.15080058D-01 -0.34532188D-03  0.81516160D-03
 -0.14337956D-05 -0.00000000D+00  0.00000000D+00 -0.81609562D-05  0.00000000D+00
  0.00000000D+00 -0.90592120D-04  0.00000000D+00 -0.00000000D+00  0.60333281D-03
 -0.00000000D+00  0.00000000D+00 -0.24828365D-07 -0.23699486D-07 -0.23699486D-07
 -0.00000000D+00  0.00000000D+00  0.00000000D+00 -0.40544240D-06 -0.37693466D-06
 -0.37693466D-06  0.00000000D+00  0.00000000D+00 -0.00000000D+00 -0.10196898D-04
 -0.57396912D-04  0.13323110D-01 -0.28747458D-01  0.26758569D-01 -0.52733054D-02
  0.12153205D-01 -0.15080058D-01  0.34532188D-03 -0.81516160D-03 -0.14337956D-05
  0.00000000D+00 -0.00000000D+00 -0.81609562D-05 -0.00000000D+00 -0.00000000D+00
 -0.90592120D-04 -0.00000000D+00  0.00000000D+00  0.60333281D-03  0.00000000D+00
 -0.00000000D+00  0.24828365D-07  0.23699486D-07  0.23699486D-07 -0.00000000D+00
  0.00000000D+00 -0.00000000D+00  0.40544240D-06  0.37693466D-06  0.37693466D-06
  0.00000000D+00  0.00000000D+00  0.00000000D+00
MO   17     MO 0.0        OCC NO =    0.0000000  ORB. ENERGY =    0.017736
  0.21059912D-02 -0.39746910D-02  0.66321148D-02 -0.10144342D-01  0.10050961D-01
 -0.13019659D-02  0.46104691D-02 -0.61254119D-02 -0.10814169D-03 -0.25076156D-03
 -0.19256781D-03 -0.00000000D+00  0.00000000D+00  0.21530676D-03  0.00000000D+00
 -0.00000000D+00 -0.34992833D-03  0.00000000D+00 -0.00000000D+00  0.60495516D-03
 -0.00000000D+00  0.00000000D+00 -0.48151900D-06  0.10673259D-07  0.10673259D-07
 -0.00000000D+00  0.00000000D+00  0.00000000D+00  0.18139151D-05  0.36324899D-06
  0.36324899D-06  0.00000000D+00 -0.00000000D+00  0.00000000D+00  0.21059912D-02
 -0.39746910D-02  0.66321148D-02 -0.10144342D-01  0.10050961D-01 -0.13019659D-02
  0.46104691D-02 -0.61254119D-02 -0.10814169D-03 -0.25076156D-03  0.19256781D-03
  0.00000000D+00 -0.00000000D+00 -0.21530676D-03 -0.00000000D+00  0.00000000D+00
  0.34992833D-03 -0.00000000D+00  0.00000000D+00 -0.60495516D-03  0.00000000D+00
 -0.00000000D+00 -0.48151900D-06  0.10673259D-07  0.10673259D-07 -0.00000000D+00
  0.00000000D+00 -0.00000000D+00  0.18139151D-05  0.36324899D-06  0.36324899D-06
  0.00000000D+00 -0.00000000D+00  0.00000000D+00
MO   18     MO 0.0        OCC NO =    0.0000000  ORB. ENERGY =    0.022857
 -0.45789495D-04 -0.42818658D-03 -0.56107817D-01  0.22470474D-01 -0.13344979D-01
  0.45811364D-02 -0.44640720D-02  0.41901663D-02 -0.82827061D-03  0.46329243D-03
  0.63582557D-05  0.00000000D+00 -0.00000000D+00  0.45190891D-04  0.00000000D+00
 -0.00000000D+00 -0.17559856D-02 -0.00000000D+00  0.00000000D+00  0.17006862D-02
  0.00000000D+00 -0.00000000D+00  0.15090462D-06  0.82335682D-07  0.82335682D-07
  0.00000000D+00 -0.00000000D+00 -0.00000000D+00  0.16397347D-05  0.21874725D-05
  0.21874725D-05  0.00000000D+00 -0.00000000D+00 -0.00000000D+00  0.45789495D-04
  0.42818658D-03  0.56107817D-01 -0.22470474D-01  0.13344979D-01 -0.45811364D-02
  0.44640720D-02 -0.41901663D-02  0.82827061D-03 -0.46329243D-03  0.63582557D-05
 -0.00000000D+00  0.00000000D+00  0.45190891D-04 -0.00000000D+00  0.00000000D+00
 -0.17559856D-02  0.00000000D+00 -0.00000000D+00  0.17006862D-02 -0.00000000D+00
  0.00000000D+00 -0.15090462D-06 -0.82335682D-07 -0.82335682D-07  0.00000000D+00
 -0.00000000D+00  0.00000000D+00 -0.16397347D-05 -0.21874725D-05 -0.21874725D-05
  0.00000000D+00 -0.00000000D+00  0.00000000D+00
MO   19     MO 0.0        OCC NO =    0.0000000  ORB. ENERGY =    0.028282
 -0.33614528D-02 -0.25004798D-02  0.17370234D-01 -0.18775682D-01  0.10282274D-01
  0.62656017D-02  0.27801926D-02 -0.74305952D-02 -0.21101503D-02  0.32756639D-03
  0.81151513D-04  0.00000000D+00 -0.00000000D+00 -0.25436878D-03 -0.00000000D+00
  0.00000000D+00  0.31972075D-06  0.00000000D+00 -0.00000000D+00  0.40285403D-04
 -0.00000000D+00  0.00000000D+00  0.29074836D-06  0.80449098D-07  0.80449098D-07
  0.00000000D+00 -0.00000000D+00  0.00000000D+00 -0.12619745D-06  0.17707265D-05
  0.17707265D-05 -0.00000000D+00  0.00000000D+00 -0.00000000D+00 -0.33614528D-02
 -0.25004798D-02  0.17370234D-01 -0.18775682D-01  0.10282274D-01  0.62656017D-02
  0.27801926D-02 -0.74305952D-02 -0.21101503D-02  0.32756639D-03 -0.81151513D-04
 -0.00000000D+00  0.00000000D+00  0.25436878D-03  0.00000000D+00 -0.00000000D+00
 -0.31972075D-06 -0.00000000D+00  0.00000000D+00 -0.40285403D-04  0.00000000D+00
 -0.00000000D+00  0.29074836D-06  0.80449098D-07  0.80449098D-07  0.00000000D+00
 -0.00000000D+00 -0.00000000D+00 -0.12619745D-06  0.17707265D-05  0.17707265D-05
 -0.00000000D+00  0.00000000D+00  0.00000000D+00
MO   20     MO 0.0        OCC NO =    0.0000000  ORB. ENERGY =    0.037211
 -0.24082182D-03 -0.44895928D-03  0.12434968D-01 -0.91899986D-02  0.79702317D-03
  0.10849085D-01 -0.15584852D-02 -0.32675341D-02 -0.27918991D-02  0.73596439D-03
  0.33415176D-04 -0.00000000D+00  0.00000000D+00  0.28282420D-04  0.00000000D+00
 -0.00000000D+00 -0.35679248D-03 -0.00000000D+00  0.00000000D+00  0.40278545D-03
  0.00000000D+00 -0.00000000D+00  0.71544667D-06  0.71460610D-06  0.71460610D-06
 -0.00000000D+00  0.00000000D+00  0.00000000D+00  0.60254310D-05  0.57725957D-05
  0.57725957D-05  0.00000000D+00 -0.00000000D+00 -0.00000000D+00  0.24082182D-03
  0.44895928D-03 -0.12434968D-01  0.91899986D-02 -0.79702317D-03 -0.10849085D-01
  0.15584852D-02  0.32675341D-02  0.27918991D-02 -0.73596439D-03  0.33415176D-04
  0.00000000D+00 -0.00000000D+00  0.28282420D-04 -0.00000000D+00  0.00000000D+00
 -0.35679248D-03  0.00000000D+00 -0.00000000D+00  0.40278545D-03 -0.00000000D+00
  0.00000000D+00 -0.71544667D-06 -0.71460610D-06 -0.71460610D-06 -0.00000000D+00
  0.00000000D+00 -0.00000000D+00 -0.60254310D-05 -0.57725957D-05 -0.57725957D-05
  0.00000000D+00 -0.00000000D+00  0.00000000D+00
MO   21     MO 0.0        OCC NO =    0.0000000  ORB. ENERGY =    0.038383
 -0.00000000D+00 -0.00000000D+00  0.00000000D+00 -0.00000000D+00 -0.00000000D+00
  0.00000000D+00 -0.00000000D+00 -0.00000000D+00 -0.00000000D+00  0.00000000D+00
  0.00000000D+00  0.00000000D+00 -0.00000000D+00  0.00000000D+00 -0.00000000D+00
  0.00000000D+00 -0.00000000D+00  0.00000000D+00  0.00000000D+00  0.00000000D+00
 -0.00000000D+00 -0.00000000D+00  0.00000000D+00  0.45061918D-07 -0.45061918D-07
  0.00000000D+00 -0.00000000D+00  0.11803198D-07  0.00000000D+00 -0.61843726D-06
  0.61843726D-06 -0.00000000D+00 -0.00000000D+00 -0.16198904D-06 -0.00000000D+00
 -0.00000000D+00 -0.00000000D+00  0.00000000D+00 -0.00000000D+00 -0.00000000D+00
 -0.00000000D+00  0.00000000D+00 -0.00000000D+00  0.00000000D+00 -0.00000000D+00
 -0.00000000D+00  0.00000000D+00  0.00000000D+00  0.00000000D+00 -0.00000000D+00
 -0.00000000D+00 -0.00000000D+00 -0.00000000D+00  0.00000000D+00  0.00000000D+00
 -0.00000000D+00  0.00000000D+00  0.45061918D-07 -0.45061918D-07  0.00000000D+00
 -0.00000000D+00  0.11803198D-07 -0.00000000D+00 -0.61843726D-06  0.61843726D-06
 -0.00000000D+00  0.00000000D+00 -0.16198904D-06
MO   22     MO 0.0        OCC NO =    0.0000000  ORB. ENERGY =    0.038383
  0.00000000D+00 -0.00000000D+00  0.00000000D+00 -0.00000000D+00 -0.00000000D+00
  0.00000000D+00 -0.00000000D+00  0.00000000D+00 -0.00000000D+00  0.00000000D+00
 -0.00000000D+00  0.00000000D+00  0.00000000D+00  0.00000000D+00 -0.00000000D+00
 -0.00000000D+00 -0.00000000D+00  0.00000000D+00  0.00000000D+00  0.00000000D+00
 -0.00000000D+00 -0.00000000D+00 -0.00000000D+00  0.59015977D-08 -0.59015977D-08
  0.00000000D+00  0.00000000D+00 -0.90123836D-07  0.00000000D+00 -0.80994518D-07
  0.80994518D-07 -0.00000000D+00 -0.00000000D+00  0.12368745D-05  0.00000000D+00
 -0.00000000D+00  0.00000000D+00 -0.00000000D+00  0.00000000D+00  0.00000000D+00
 -0.00000000D+00 -0.00000000D+00 -0.00000000D+00  0.00000000D+00  0.00000000D+00
 -0.00000000D+00 -0.00000000D+00 -0.00000000D+00  0.00000000D+00  0.00000000D+00
  0.00000000D+00 -0.00000000D+00 -0.00000000D+00 -0.00000000D+00  0.00000000D+00
  0.00000000D+00 -0.00000000D+00  0.59015977D-08 -0.59015977D-08  0.00000000D+00
  0.00000000D+00 -0.90123836D-07  0.00000000D+00 -0.80994518D-07  0.80994518D-07
 -0.00000000D+00 -0.00000000D+00  0.12368745D-05
MO   23     MO 0.0        OCC NO =    0.0000000  ORB. ENERGY =    0.042450
 -0.17714260D-03  0.56094019D-03  0.13008703D-02  0.62684690D-03  0.25329389D-02
 -0.69644066D-02  0.16891178D-02  0.97358765D-03  0.16202446D-02 -0.46852724D-03
  0.22754845D-04 -0.00000000D+00  0.00000000D+00 -0.95144676D-04  0.00000000D+00
 -0.00000000D+00  0.15171647D-03 -0.00000000D+00  0.00000000D+00 -0.18426811D-03
  0.00000000D+00 -0.00000000D+00  0.81202630D-06  0.76759795D-06  0.76759795D-06
 -0.00000000D+00  0.00000000D+00  0.00000000D+00  0.10976542D-05  0.15168638D-05
  0.15168638D-05  0.00000000D+00 -0.00000000D+00 -0.00000000D+00  0.17714260D-03
 -0.56094019D-03 -0.13008703D-02 -0.62684690D-03 -0.25329389D-02  0.69644066D-02
 -0.16891178D-02 -0.97358765D-03 -0.16202446D-02  0.46852724D-03  0.22754844D-04
  0.00000000D+00 -0.00000000D+00 -0.95144676D-04 -0.00000000D+00  0.00000000D+00
  0.15171647D-03  0.00000000D+00 -0.00000000D+00 -0.18426811D-03 -0.00000000D+00
  0.00000000D+00 -0.81202630D-06 -0.76759795D-06 -0.76759795D-06 -0.00000000D+00
  0.00000000D+00 -0.00000000D+00 -0.10976542D-05 -0.15168638D-05 -0.15168638D-05
  0.00000000D+00 -0.00000000D+00  0.00000000D+00
MO   24     MO 0.0        OCC NO =    0.0000000  ORB. ENERGY =    0.042753
 -0.00000000D+00 -0.00000000D+00  0.00000000D+00 -0.00000000D+00  0.00000000D+00
 -0.00000000D+00  0.00000000D+00  0.00000000D+00  0.00000000D+00 -0.00000000D+00
  0.00000000D+00  0.31418338D-07 -0.12050837D-05  0.00000000D+00 -0.12623665D-05
  0.48419333D-04  0.00000000D+00  0.55856551D-05 -0.21424341D-03 -0.00000000D+00
 -0.86423563D-05  0.33148609D-03  0.00000000D+00  0.00000000D+00  0.00000000D+00
  0.11772138D-07 -0.45153206D-06  0.00000000D+00  0.00000000D+00  0.00000000D+00
  0.00000000D+00 -0.59964281D-07  0.22999900D-05 -0.00000000D+00 -0.00000000D+00
 -0.00000000D+00 -0.00000000D+00 -0.00000000D+00 -0.00000000D+00  0.00000000D+00
  0.00000000D+00 -0.00000000D+00  0.00000000D+00 -0.00000000D+00 -0.00000000D+00
  0.31418338D-07 -0.12050836D-05 -0.00000000D+00 -0.12623665D-05  0.48419333D-04