[Molden Format]
[Title]
 Molden2AIM, Version 3.1.0 (02/25/2015)           Time: Thu Oct 17 19:55:02 2024

[Atoms] AU
E+       1       4     0.00000000     0.00000000     0.00000000
E+       2       4    40.60000000     0.00000000     0.00000000
[GTO]
    1 0
 S   1 1.0
    0.1000000000D-03      0.1000000000D+01
 S   1 1.0
    0.3000000000D-03      0.1000000000D+01
 S   1 1.0
    0.9000000000D-03      0.1000000000D+01
 S   1 1.0
    0.2700000000D-02      0.1000000000D+01
 S   1 1.0
    0.8100000000D-02      0.1000000000D+01
 S   1 1.0
    0.2430000000D-01      0.1000000000D+01
 S   1 1.0
    0.7290000000D-01      0.1000000000D+01
 S   1 1.0
    0.2187000000D+00      0.1000000000D+01
 S   1 1.0
    0.6561000000D+00      0.1000000000D+01
 S   1 1.0
    0.1968300000D+01      0.1000000000D+01
 P   1 1.0
    0.1000000000D-03      0.1000000000D+01
 P   1 1.0
    0.3000000000D-03      0.1000000000D+01
 P   1 1.0
    0.9000000000D-03      0.1000000000D+01
 P   1 1.0
    0.2700000000D-02      0.1000000000D+01
 D   1 1.0
    0.1000000000D-03      0.1000000000D+01
 D   1 1.0
    0.3000000000D-03      0.1000000000D+01

    2 0
 S   1 1.0
    0.1000000000D-03      0.1000000000D+01
 S   1 1.0
    0.3000000000D-03      0.1000000000D+01
 S   1 1.0
    0.9000000000D-03      0.1000000000D+01
 S   1 1.0
    0.2700000000D-02      0.1000000000D+01
 S   1 1.0
    0.8100000000D-02      0.1000000000D+01
 S   1 1.0
    0.2430000000D-01      0.1000000000D+01
 S   1 1.0
    0.7290000000D-01      0.1000000000D+01
 S   1 1.0
    0.2187000000D+00      0.1000000000D+01
 S   1 1.0
    0.6561000000D+00      0.1000000000D+01
 S   1 1.0
    0.1968300000D+01      0.1000000000D+01
 P   1 1.0
    0.1000000000D-03      0.1000000000D+01
 P   1 1.0
    0.3000000000D-03      0.1000000000D+01
 P   1 1.0
    0.9000000000D-03      0.1000000000D+01
 P   1 1.0
    0.2700000000D-02      0.1000000000D+01
 D   1 1.0
    0.1000000000D-03      0.1000000000D+01
 D   1 1.0
    0.3000000000D-03      0.1000000000D+01


[MO]
 Ene=         -0.00352849
 Spin= Alpha
 Occup=        1.00000000
    1       -0.0180704300
    2        0.0041528200
    3        0.0234985000
    4        0.1937536200
    5        0.3024528300
    6        0.1982056700
    7        0.1225831000
    8       -0.0990753600
    9       -0.0067856400
   10        0.0000960000
   11        0.0533564000
   12        0.0000000000
   13        0.0000000000
   14       -0.0136574900
   15        0.0000000000
   16       -0.0000000000
   17        0.0185337400
   18       -0.0000000000
   19        0.0000000000
   20        0.0544278500
   21        0.0000000000
   22       -0.0000000000
   23        0.0184294800
   24       -0.0005294500
   25       -0.0005294500
   26        0.0000000000
   27        0.0000000000
   28        0.0000000000
   29       -0.0056331800
   30       -0.0015002500
   31       -0.0015002500
   32        0.0000000000
   33       -0.0000000000
   34       -0.0000000000
   35       -0.0180704300
   36        0.0041528200
   37        0.0234985000
   38        0.1937536200
   39        0.3024528300
   40        0.1982056700
   41        0.1225831000
   42       -0.0990753600
   43       -0.0067856400
   44        0.0000960000
   45       -0.0533564000
   46       -0.0000000000
   47       -0.0000000000
   48        0.0136574900
   49       -0.0000000000
   50        0.0000000000
   51       -0.0185337400
   52        0.0000000000
   53       -0.0000000000
   54       -0.0544278500
   55       -0.0000000000
   56        0.0000000000
   57        0.0184294800
   58       -0.0005294500
   59       -0.0005294500
   60        0.0000000000
   61        0.0000000000
   62       -0.0000000000
   63       -0.0056331800
   64       -0.0015002500
   65       -0.0015002500
   66        0.0000000000
   67       -0.0000000000
   68        0.0000000000
 Ene=         -0.00327228
 Spin= Alpha
 Occup=        0.00000000
    1        0.0000846800
    2        0.0323304300
    3       -0.0070546300
    4       -0.2559157700
    5       -0.2865863600
    6       -0.2166433400
    7       -0.1237863400
    8        0.1017929500
    9        0.0072884200
   10       -0.0001437500
   11       -0.0020277000
   12        0.0000000000
   13       -0.0000000000
   14        0.0098088800
   15        0.0000000000
   16        0.0000000000
   17        0.0044169400
   18       -0.0000000000
   19       -0.0000000000
   20       -0.0859779700
   21        0.0000000000
   22        0.0000000000
   23       -0.0021261300
   24       -0.0016984300
   25       -0.0016984300
   26        0.0000000000
   27       -0.0000000000
   28       -0.0000000000
   29       -0.0016448900
   30       -0.0040653800
   31       -0.0040653800
   32       -0.0000000000
   33        0.0000000000
   34        0.0000000000
   35       -0.0000846800
   36       -0.0323304300
   37        0.0070546300
   38        0.2559157700
   39        0.2865863600
   40        0.2166433400
   41        0.1237863400
   42       -0.1017929500
   43       -0.0072884200
   44        0.0001437500
   45       -0.0020277000
   46       -0.0000000000
   47        0.0000000000
   48        0.0098088800
   49       -0.0000000000
   50       -0.0000000000
   51        0.0044169400
   52        0.0000000000
   53        0.0000000000
   54       -0.0859779700
   55       -0.0000000000
   56       -0.0000000000
   57        0.0021261300
   58        0.0016984300
   59        0.0016984300
   60        0.0000000000
   61       -0.0000000000
   62        0.0000000000
   63        0.0016448900
   64        0.0040653800
   65        0.0040653800
   66       -0.0000000000
   67        0.0000000000
   68       -0.0000000000
 Ene=          0.00433555
 Spin= Alpha
 Occup=        0.00000000
    1       -0.6396531500
    2       -0.1038275500
    3        0.9789004600
    4       -0.5911512100
    5       -0.0737679000
    6       -0.1173291400
    7       -0.0396189600
    8        0.0373076900
    9        0.0035195200
   10       -0.0001696700
   11        1.1178126200
   12        0.0000000000
   13        0.0000000000
   14       -0.3536704800
   15       -0.0000000000
   16       -0.0000000000
   17        0.4598392400
   18       -0.0000000000
   19       -0.0000000000
   20       -0.0383559200
   21        0.0000000000
   22        0.0000000000
   23        0.4244506700
   24        0.0270449100
   25        0.0270449100
   26        0.0000000000
   27        0.0000000000
   28       -0.0000000000
   29       -0.0348931000
   30        0.0911155700
   31        0.0911155700
   32       -0.0000000000
   33       -0.0000000000
   34        0.0000000000
   35       -0.6396531500
   36       -0.1038275500
   37        0.9789004600
   38       -0.5911512100
   39       -0.0737679000
   40       -0.1173291400
   41       -0.0396189600
   42        0.0373076900
   43        0.0035195200
   44       -0.0001696700
   45       -1.1178126200
   46       -0.0000000000
   47       -0.0000000000
   48        0.3536704800
   49        0.0000000000
   50        0.0000000000
   51       -0.4598392400
   52       -0.0000000000
   53        0.0000000000
   54        0.0383559200
   55       -0.0000000000
   56       -0.0000000000
   57        0.4244506700
   58        0.0270449100
   59        0.0270449100
   60        0.0000000000
   61        0.0000000000
   62        0.0000000000
   63       -0.0348931000
   64        0.0911155700
   65        0.0911155700
   66       -0.0000000000
   67       -0.0000000000
   68       -0.0000000000
 Ene=          0.00729388
 Spin= Alpha
 Occup=        0.00000000
    1        0.0000000000
    2       -0.0000000000
    3        0.0000000000
    4       -0.0000000000
    5        0.0000000000
    6       -0.0000000000
    7       -0.0000000000
    8        0.0000000000
    9       -0.0000000000
   10        0.0000000000
   11       -0.0000000000
   12       -0.0143748100
   13       -0.0262460600
   14       -0.0000000000
   15        0.0421590400
   16        0.0769755600
   17        0.0000000000
   18       -0.1418306200
   19       -0.2589596500
   20       -0.0000000000
   21       -0.2024844300
   22       -0.3697036300
   23       -0.0000000000
   24       -0.0000000000
   25       -0.0000000000
   26        0.0085462000
   27        0.0156039700
   28       -0.0000000000
   29       -0.0000000000
   30       -0.0000000000
   31       -0.0000000000
   32       -0.0211513500
   33       -0.0386189200
   34        0.0000000000
   35       -0.0000000000
   36        0.0000000000
   37       -0.0000000000
   38        0.0000000000
   39       -0.0000000000
   40        0.0000000000
   41        0.0000000000
   42       -0.0000000000
   43        0.0000000000
   44       -0.0000000000
   45        0.0000000000
   46       -0.0143748100
   47       -0.0262460600
   48       -0.0000000000
   49        0.0421590400
   50        0.0769755600
   51        0.0000000000
   52       -0.1418306200
   53       -0.2589596500
   54       -0.0000000000
   55       -0.2024844300
   56       -0.3697036300
   57       -0.0000000000
   58        0.0000000000
   59        0.0000000000
   60       -0.0085462000
   61       -0.0156039700
   62        0.0000000000
   63        0.0000000000
   64        0.0000000000
   65        0.0000000000
   66        0.0211513500
   67        0.0386189200
   68        0.0000000000
 Ene=          0.00729388
 Spin= Alpha
 Occup=        0.00000000
    1        0.0000000000
    2       -0.0000000000
    3        0.0000000000
    4       -0.0000000000
    5       -0.0000000000
    6       -0.0000000000
    7       -0.0000000000
    8        0.0000000000
    9       -0.0000000000
   10       -0.0000000000
   11       -0.0000000000
   12       -0.0262460600
   13        0.0143748100
   14       -0.0000000000
   15        0.0769755600
   16       -0.0421590400
   17        0.0000000000
   18       -0.2589596500
   19        0.1418306200
   20        0.0000000000
   21       -0.3697036300
   22        0.2024844300
   23       -0.0000000000
   24       -0.0000000000
   25       -0.0000000000
   26        0.0156039700
   27       -0.0085462000
   28        0.0000000000
   29       -0.0000000000
   30       -0.0000000000
   31       -0.0000000000
   32       -0.0386189200
   33        0.0211513500
   34       -0.0000000000
   35        0.0000000000
   36        0.0000000000
   37       -0.0000000000
   38        0.0000000000
   39        0.0000000000
   40        0.0000000000
   41        0.0000000000
   42        0.0000000000
   43       -0.0000000000
   44        0.0000000000
   45        0.0000000000
   46       -0.0262460600
   47        0.0143748100
   48       -0.0000000000
   49        0.0769755600
   50       -0.0421590400
   51        0.0000000000
   52       -0.2589596500
   53        0.1418306200
   54       -0.0000000000
   55       -0.3697036300
   56        0.2024844300
   57       -0.0000000000
   58        0.0000000000
   59        0.0000000000
   60       -0.0156039700
   61        0.0085462000
   62       -0.0000000000
   63        0.0000000000
   64        0.0000000000
   65        0.0000000000
   66        0.0386189200
   67       -0.0211513500
   68        0.0000000000
 Ene=          0.00957766
 Spin= Alpha
 Occup=        0.00000000
    1       -0.0000000000
    2        0.0000000000
    3       -0.0000000000
    4        0.0000000000
    5        0.0000000000
    6        0.0000000000
    7        0.0000000000
    8       -0.0000000000
    9       -0.0000000000
   10       -0.0000000000
   11        0.0000000000
   12        0.0075614700
   13        0.0382874300
   14        0.0000000000
   15       -0.0159681500
   16       -0.0808545700
   17       -0.0000000000
   18       -0.0027256800
   19       -0.0138014700
   20       -0.0000000000
   21       -0.1435781400
   22       -0.7270063200
   23        0.0000000000
   24        0.0000000000
   25        0.0000000000
   26        0.0021228800
   27        0.0107491600
   28        0.0000000000
   29        0.0000000000
   30        0.0000000000
   31        0.0000000000
   32       -0.0070211400
   33       -0.0355514500
   34       -0.0000000000
   35        0.0000000000
   36       -0.0000000000
   37        0.0000000000
   38       -0.0000000000
   39       -0.0000000000
   40       -0.0000000000
   41       -0.0000000000
   42        0.0000000000
   43        0.0000000000
   44       -0.0000000000
   45       -0.0000000000
   46       -0.0075614700
   47       -0.0382874300
   48        0.0000000000
   49        0.0159681500
   50        0.0808545700
   51       -0.0000000000
   52        0.0027256800
   53        0.0138014700
   54       -0.0000000000
   55        0.1435781400
   56        0.7270063200
   57        0.0000000000
   58       -0.0000000000
   59       -0.0000000000
   60        0.0021228800
   61        0.0107491600
   62       -0.0000000000
   63       -0.0000000000
   64       -0.0000000000
   65       -0.0000000000
   66       -0.0070211400
   67       -0.0355514500
   68        0.0000000000
 Ene=          0.00957766
 Spin= Alpha
 Occup=        0.00000000
    1        0.0000000000
    2        0.0000000000
    3       -0.0000000000
    4        0.0000000000
    5       -0.0000000000
    6        0.0000000000
    7       -0.0000000000
    8        0.0000000000
    9        0.0000000000
   10        0.0000000000
   11       -0.0000000000
   12       -0.0382874300
   13        0.0075614700
   14        0.0000000000
   15        0.0808545700
   16       -0.0159681500
   17       -0.0000000000
   18        0.0138014700
   19       -0.0027256800
   20        0.0000000000
   21        0.7270063200
   22       -0.1435781400
   23       -0.0000000000
   24        0.0000000000
   25        0.0000000000
   26       -0.0107491600
   27        0.0021228800
   28       -0.0000000000
   29        0.0000000000
   30        0.0000000000
   31        0.0000000000
   32        0.0355514500
   33       -0.0070211400
   34       -0.0000000000
   35        0.0000000000
   36       -0.0000000000
   37        0.0000000000
   38        0.0000000000
   39       -0.0000000000
   40        0.0000000000
   41       -0.0000000000
   42        0.0000000000
   43       -0.0000000000
   44        0.0000000000
   45        0.0000000000
   46        0.0382874300
   47       -0.0075614700
   48        0.0000000000
   49       -0.0808545700
   50        0.0159681500
   51       -0.0000000000
   52       -0.0138014700
   53        0.0027256800
   54       -0.0000000000
   55       -0.7270063200
   56        0.1435781400
   57       -0.0000000000
   58       -0.0000000000
   59       -0.0000000000
   60       -0.0107491600
   61        0.0021228800
   62        0.0000000000
   63       -0.0000000000
   64       -0.0000000000
   65       -0.0000000000
   66        0.0355514500
   67       -0.0070211400
   68        0.0000000000
 Ene=          0.00985815
 Spin= Alpha
 Occup=        0.00000000
    1       -0.2980154700
    2       25.7964842500
    3       -2.1819489900
    4       -0.1704679100
    5        0.5502700600
    6        0.0356642400
    7        0.0803194000
    8       -0.0544198300
    9       -0.0020106600
   10       -0.0002023400
   11       -0.1124506500
   12       -0.0000000000
   13        0.0000000000
   14        9.8619342700
   15        0.0000000000
   16       -0.0000000000
   17       -0.8910430200
   18       -0.0000000000
   19        0.0000000000
   20       -0.3814143900
   21        0.0000000000
   22        0.0000000000
   23       -0.0789582100
   24       -0.0497996500
   25       -0.0497996500
   26       -0.0000000000
   27        0.0000000000
   28        0.0000000000
   29        1.9667935400
   30       -0.0755668500
   31       -0.0755668500
   32        0.0000000000
   33       -0.0000000000
   34       -0.0000000000
   35        0.2980154700
   36      -25.7964842500
   37        2.1819489900
   38        0.1704679100
   39       -0.5502700600
   40       -0.0356642400
   41       -0.0803194000
   42        0.0544198300
   43        0.0020106600
   44        0.0002023400
   45       -0.1124506500
   46        0.0000000000
   47       -0.0000000000
   48        9.8619342700
   49       -0.0000000000
   50        0.0000000000
   51       -0.8910430200
   52        0.0000000000
   53       -0.0000000000
   54       -0.3814143900
   55       -0.0000000000
   56       -0.0000000000
   57        0.0789582100
   58        0.0497996500
   59        0.0497996500
   60       -0.0000000000
   61        0.0000000000
   62       -0.0000000000
   63       -1.9667935400
   64        0.0755668500
   65        0.0755668500
   66        0.0000000000
   67       -0.0000000000
   68        0.0000000000
 Ene=          0.01019540
 Spin= Alpha
 Occup=        0.00000000
    1       -0.3799912700
    2        0.2729106100
    3        0.5637303100
    4       -1.2731510700
    5        0.6594894900
    6       -0.0531167400
    7        0.0747743700
    8       -0.0419361100
    9        0.0002278100
   10       -0.0004089500
   11        1.3855378200
   12       -0.0000000000
   13       -0.0000000000
   14       -0.3764835700
   15        0.0000000000
   16       -0.0000000000
   17        0.6081061700
   18       -0.0000000000
   19       -0.0000000000
   20       -0.7549835600
   21        0.0000000000
   22       -0.0000000000
   23        0.4685590100
   24       -0.0267832200
   25       -0.0267832200
   26       -0.0000000000
   27       -0.0000000000
   28        0.0000000000
   29       -0.2174356400
   30       -0.0920484500
   31       -0.0920484500
   32       -0.0000000000
   33       -0.0000000000
   34       -0.0000000000
   35       -0.3799912700
   36        0.2729106200
   37        0.5637303100
   38       -1.2731510700
   39        0.6594894900
   40       -0.0531167400
   41        0.0747743700
   42       -0.0419361100
   43        0.0002278100
   44       -0.0004089500
   45       -1.3855378200
   46        0.0000000000
   47        0.0000000000
   48        0.3764835700
   49       -0.0000000000
   50        0.0000000000
   51       -0.6081061700
   52        0.0000000000
   53       -0.0000000000
   54        0.7549835600
   55       -0.0000000000
   56        0.0000000000
   57        0.4685590100
   58       -0.0267832200
   59       -0.0267832200
   60       -0.0000000000
   61       -0.0000000000
   62       -0.0000000000
   63       -0.2174356400
   64       -0.0920484500
   65       -0.0920484500
   66       -0.0000000000
   67        0.0000000000
   68        0.0000000000
 Ene=          0.01447810
 Spin= Alpha
 Occup=        0.00000000
    1        0.0000000000
    2       -0.0000000000
    3        0.0000000000
    4       -0.0000000000
    5        0.0000000000
    6       -0.0000000000
    7        0.0000000000
    8       -0.0000000000
    9       -0.0000000000
   10       -0.0000000000
   11        0.0000000000
   12        0.0315672500
   13       -0.0672887200
   14       -0.0000000000
   15       -0.1000129000
   16        0.2131873800
   17        0.0000000000
   18        0.4179602100
   19       -0.8909235300
   20        0.0000000000
   21       -0.4002468500
   22        0.8531657600
   23        0.0000000000
   24       -0.0000000000
   25       -0.0000000000
   26       -0.0123958400
   27        0.0264229600
   28        0.0000000000
   29       -0.0000000000
   30       -0.0000000000
   31       -0.0000000000
   32        0.0388497000
   33       -0.0828119800
   34       -0.0000000000
   35       -0.0000000000
   36        0.0000000000
   37       -0.0000000000
   38       -0.0000000000
   39        0.0000000000
   40       -0.0000000000
   41        0.0000000000
   42        0.0000000000
   43       -0.0000000000
   44        0.0000000000
   45       -0.0000000000
   46        0.0315672500
   47       -0.0672887200
   48       -0.0000000000
   49       -0.1000129000
   50        0.2131873800
   51        0.0000000000
   52        0.4179602100
   53       -0.8909235300
   54       -0.0000000000
   55       -0.4002468500
   56        0.8531657600
   57        0.0000000000
   58        0.0000000000
   59        0.0000000000
   60        0.0123958400
   61       -0.0264229600
   62        0.0000000000
   63        0.0000000000
   64        0.0000000000
   65        0.0000000000
   66       -0.0388497000
   67        0.0828119800
   68        0.0000000000
 Ene=          0.01447810
 Spin= Alpha
 Occup=        0.00000000
    1        0.0000000000
    2        0.0000000000
    3       -0.0000000000
    4        0.0000000000
    5       -0.0000000000
    6        0.0000000000
    7       -0.0000000000
    8        0.0000000000
    9       -0.0000000000
   10        0.0000000000
   11       -0.0000000000
   12        0.0672887200
   13        0.0315672500
   14        0.0000000000
   15       -0.2131873800
   16       -0.1000129000
   17       -0.0000000000
   18        0.8909235300
   19        0.4179602100
   20        0.0000000000
   21       -0.8531657600
   22       -0.4002468500
   23       -0.0000000000
   24        0.0000000000
   25        0.0000000000
   26       -0.0264229600
   27       -0.0123958400
   28        0.0000000000
   29        0.0000000000
   30        0.0000000000
   31        0.0000000000
   32        0.0828119800
   33        0.0388497000
   34       -0.0000000000
   35        0.0000000000
   36       -0.0000000000
   37        0.0000000000
   38       -0.0000000000
   39        0.0000000000
   40       -0.0000000000
   41        0.0000000000
   42       -0.0000000000
   43       -0.0000000000
   44        0.0000000000
   45        0.0000000000
   46        0.0672887200
   47        0.0315672500
   48        0.0000000000
   49       -0.2131873800
   50       -0.1000129000
   51       -0.0000000000
   52        0.8909235300
   53        0.4179602100
   54        0.0000000000
   55       -0.8531657600
   56       -0.4002468500
   57       -0.0000000000
   58       -0.0000000000
   59       -0.0000000000
   60        0.0264229600
   61        0.0123958400
   62       -0.0000000000
   63       -0.0000000000
   64       -0.0000000000
   65       -0.0000000000
   66       -0.0828119800
   67       -0.0388497000
   68        0.0000000000
 Ene=          0.01548080
 Spin= Alpha
 Occup=        0.00000000
    1       -0.2753470700
    2       21.1924787600
    3       -1.4442958700
    4        0.7132702100
    5       -0.2566105900
    6        0.0633026000
    7       -0.0197403500
    8        0.0061462600
    9       -0.0012242700
   10        0.0002290500
   11        0.0350025000
   12       -0.0000000000
   13        0.0000000000
   14        8.2457538700
   15        0.0000000000
   16       -0.0000000000
   17       -0.9538210100
   18       -0.0000000000
   19        0.0000000000
   20        0.9756256000
   21        0.0000000000
   22       -0.0000000000
   23        0.0744798800
   24        0.0715973900
   25        0.0715973900
   26       -0.0000000000
   27        0.0000000000
   28       -0.0000000000
   29        1.8793831600
   30        0.1917505700
   31        0.1917505700
   32        0.0000000000
   33       -0.0000000000
   34       -0.0000000000
   35        0.2753470700
   36      -21.1924787600
   37        1.4442958700
   38       -0.7132702100
   39        0.2566105900
   40       -0.0633026000
   41        0.0197403500
   42       -0.0061462600
   43        0.0012242700
   44       -0.0002290500
   45        0.0350025000
   46        0.0000000000
   47       -0.0000000000
   48        8.2457538700
   49       -0.0000000000
   50        0.0000000000
   51       -0.9538210100
   52        0.0000000000
   53       -0.0000000000
   54        0.9756256000
   55       -0.0000000000
   56        0.0000000000
   57       -0.0744798800
   58       -0.0715973900
   59       -0.0715973900
   60       -0.0000000000
   61        0.0000000000
   62        0.0000000000
   63       -1.8793831600
   64       -0.1917505700
   65       -0.1917505700
   66        0.0000000000
   67       -0.0000000000
   68       -0.0000000000
 Ene=          0.01555620
 Spin= Alpha
 Occup=        0.00000000
    1       -0.1429084300
    2        0.0306734900
    3        0.2565215000
    4       -1.3391113700
    5        0.8046302400
    6        0.0177022500
    7        0.0858653500
    8       -0.0561284300
    9       -0.0017399600
   10       -0.0002595700
   11        0.4884543300
   12        0.0000000000
   13       -0.0000000000
   14       -0.0526590000
   15       -0.0000000000
   16        0.0000000000
   17        0.2299171400
   18        0.0000000000
   19        0.0000000000
   20        0.2640875700
   21       -0.0000000000
   22       -0.0000000000
   23        0.1627979900
   24       -0.0070129600
   25       -0.0070129600
   26        0.0000000000
   27       -0.0000000000
   28       -0.0000000000
   29       -0.0140799700
   30       -0.0303405500
   31       -0.0303405500
   32       -0.0000000000
   33        0.0000000000
   34        0.0000000000
   35       -0.1429084300
   36        0.0306734900
   37        0.2565215000
   38       -1.3391113700
   39        0.8046302400
   40        0.0177022500
   41        0.0858653500
   42       -0.0561284300
   43       -0.0017399600
   44       -0.0002595700
   45       -0.4884543300
   46       -0.0000000000
   47        0.0000000000
   48        0.0526590000
   49        0.0000000000
   50       -0.0000000000
   51       -0.2299171400
   52       -0.0000000000
   53        0.0000000000
   54       -0.2640875700
   55        0.0000000000
   56       -0.0000000000
   57        0.1627979900
   58       -0.0070129600
   59       -0.0070129600
   60        0.0000000000
   61       -0.0000000000
   62        0.0000000000
   63       -0.0140799700
   64       -0.0303405500
   65       -0.0303405500
   66       -0.0000000000
   67        0.0000000000
   68       -0.0000000000
 Ene=          0.01876300
 Spin= Alpha
 Occup=        0.00000000
    1        0.3995488400
    2      -32.9750453100
    3        3.9710435400
    4       -2.5859471100
    5        1.1074825600
    6       -0.0169476000
    7        0.1010998300
    8       -0.0622257800
    9       -0.0011576800
   10       -0.0003992200
   11        0.0690157500
   12        0.0000000000
   13       -0.0000000000
   14      -12.7083961400
   15       -0.0000000000
   16        0.0000000000
   17        1.8358223300
   18        0.0000000000
   19       -0.0000000000
   20        0.0089252300
   21       -0.0000000000
   22        0.0000000000
   23        0.0054298300
   24        0.0060234500
   25        0.0060234500
   26        0.0000000000
   27       -0.0000000000
   28       -0.0000000000
   29       -2.6589692700
   30       -0.0800362300
   31       -0.0800362300
   32       -0.0000000000
   33        0.0000000000
   34        0.0000000000
   35       -0.3995488400
   36       32.9750453100
   37       -3.9710435400
   38        2.5859471100
   39       -1.1074825600
   40        0.0169476000
   41       -0.1010998300
   42        0.0622257800
   43        0.0011576800
   44        0.0003992200
   45        0.0690157500
   46       -0.0000000000
   47        0.0000000000
   48      -12.7083961400
   49        0.0000000000
   50       -0.0000000000
   51        1.8358223300
   52       -0.0000000000
   53        0.0000000000
   54        0.0089252300
   55        0.0000000000
   56       -0.0000000000
   57       -0.0054298300
   58       -0.0060234500
   59       -0.0060234500
   60        0.0000000000
   61       -0.0000000000
   62        0.0000000000
   63        2.6589692700
   64        0.0800362300
   65        0.0800362300
   66       -0.0000000000
   67        0.0000000000
   68        0.0000000000
 Ene=          0.02100430
 Spin= Alpha
 Occup=        0.00000000
    1        0.0000000000
    2       -0.0000000000
    3        0.0000000000
    4        0.0000000000
    5       -0.0000000000
    6       -0.0000000000
    7       -0.0000000000
    8        0.0000000000
    9       -0.0000000000
   10        0.0000000000
   11        0.0000000000
   12        5.4596668400
   13       -1.3275190800
   14       -0.0000000000
   15       -1.2359589800
   16        0.3005236700
   17        0.0000000000
   18        1.6192002600
   19       -0.3937088700
   20       -0.0000000000
   21       -0.7851302000
   22        0.1909045700
   23        0.0000000000
   24       -0.0000000000
   25       -0.0000000000
   26        1.0857736200
   27       -0.2640060700
   28        0.0000000000
   29       -0.0000000000
   30       -0.0000000000
   31       -0.0000000000
   32       -0.2315133500
   33        0.0562925200
   34       -0.0000000000
   35       -0.0000000000
   36        0.0000000000
   37       -0.0000000000
   38       -0.0000000000
   39        0.0000000000
   40        0.0000000000
   41        0.0000000000
   42       -0.0000000000
   43       -0.0000000000
   44       -0.0000000000
   45       -0.0000000000
   46       -5.4596668400
   47        1.3275190800
   48       -0.0000000000
   49        1.2359589800
   50       -0.3005236700
   51        0.0000000000
   52       -1.6192002600
   53        0.3937088700
   54       -0.0000000000
   55        0.7851302000
   56       -0.1909045700
   57        0.0000000000
   58        0.0000000000
   59        0.0000000000
   60        1.0857736200
   61       -0.2640060700
   62       -0.0000000000
   63        0.0000000000
   64        0.0000000000
   65        0.0000000000
   66       -0.2315133500
   67        0.0562925200
   68        0.0000000000
 Ene=          0.02100430
 Spin= Alpha
 Occup=        0.00000000
    1       -0.0000000000
    2        0.0000000000
    3        0.0000000000
    4       -0.0000000000
    5        0.0000000000
    6        0.0000000000
    7        0.0000000000
    8       -0.0000000000
    9       -0.0000000000
   10       -0.0000000000
   11       -0.0000000000
   12        1.3275190800
   13        5.4596668400
   14        0.0000000000
   15       -0.3005236700
   16       -1.2359589800