 Molden2AIM, Version 3.1.0 (02/25/2015)           Time: Thu Oct 17 19:56:01 2024
GAUSSIAN             68 MOL ORBITALS     68 PRIMITIVES        2 NUCLEI
  Be   1    (CENTRE  1)   0.00000000  0.00000000  0.00000000  CHARGE =  4.0
  Be   2    (CENTRE  2)  53.80000000  0.00000000  0.00000000  CHARGE =  4.0
CENTRE ASSIGNMENTS    1  1  1  1  1  1  1  1  1  1  1  1  1  1  1  1  1  1  1  1
CENTRE ASSIGNMENTS    1  1  1  1  1  1  1  1  1  1  1  1  1  1  2  2  2  2  2  2
CENTRE ASSIGNMENTS    2  2  2  2  2  2  2  2  2  2  2  2  2  2  2  2  2  2  2  2
CENTRE ASSIGNMENTS    2  2  2  2  2  2  2  2
TYPE ASSIGNMENTS      1  1  1  1  1  1  1  1  1  1  2  3  4  2  3  4  2  3  4  2
TYPE ASSIGNMENTS      3  4  5  6  7  8  9 10  5  6  7  8  9 10  1  1  1  1  1  1
TYPE ASSIGNMENTS      1  1  1  1  2  3  4  2  3  4  2  3  4  2  3  4  5  6  7  8
TYPE ASSIGNMENTS      9 10  5  6  7  8  9 10
EXPONENTS  0.1000000D-03 0.3000000D-03 0.9000000D-03 0.2700000D-02 0.8100000D-02
EXPONENTS  0.2430000D-01 0.7290000D-01 0.2187000D+00 0.6561000D+00 0.1968300D+01
EXPONENTS  0.1000000D-03 0.1000000D-03 0.1000000D-03 0.3000000D-03 0.3000000D-03
EXPONENTS  0.3000000D-03 0.9000000D-03 0.9000000D-03 0.9000000D-03 0.2700000D-02
EXPONENTS  0.2700000D-02 0.2700000D-02 0.1000000D-03 0.1000000D-03 0.1000000D-03
EXPONENTS  0.1000000D-03 0.1000000D-03 0.1000000D-03 0.3000000D-03 0.3000000D-03
EXPONENTS  0.3000000D-03 0.3000000D-03 0.3000000D-03 0.3000000D-03 0.1000000D-03
EXPONENTS  0.3000000D-03 0.9000000D-03 0.2700000D-02 0.8100000D-02 0.2430000D-01
EXPONENTS  0.7290000D-01 0.2187000D+00 0.6561000D+00 0.1968300D+01 0.1000000D-03
EXPONENTS  0.1000000D-03 0.1000000D-03 0.3000000D-03 0.3000000D-03 0.3000000D-03
EXPONENTS  0.9000000D-03 0.9000000D-03 0.9000000D-03 0.2700000D-02 0.2700000D-02
EXPONENTS  0.2700000D-02 0.1000000D-03 0.1000000D-03 0.1000000D-03 0.1000000D-03
EXPONENTS  0.1000000D-03 0.1000000D-03 0.3000000D-03 0.3000000D-03 0.3000000D-03
EXPONENTS  0.3000000D-03 0.3000000D-03 0.3000000D-03
MO    1     MO 0.0        OCC NO =    1.0000000  ORB. ENERGY =    0.002425
  0.17352856D-03  0.24224281D-03 -0.14751952D-02 -0.94628118D-03 -0.30737103D-02
 -0.59358667D-02 -0.83336396D-02  0.15402881D-01  0.24066073D-02 -0.80855295D-04
 -0.31133947D-05 -0.00000000D+00  0.00000000D+00  0.40484045D-05  0.00000000D+00
  0.00000000D+00 -0.28388380D-04 -0.00000000D+00 -0.00000000D+00 -0.17060198D-03
  0.00000000D+00  0.00000000D+00 -0.19376909D-07 -0.30856394D-08 -0.30856394D-08
 -0.00000000D+00  0.00000000D+00  0.00000000D+00 -0.65918055D-07 -0.71925740D-07
 -0.71925740D-07  0.00000000D+00  0.00000000D+00 -0.00000000D+00  0.17352856D-03
  0.24224281D-03 -0.14751952D-02 -0.94628118D-03 -0.30737103D-02 -0.59358667D-02
 -0.83336396D-02  0.15402881D-01  0.24066073D-02 -0.80855295D-04  0.31133947D-05
  0.00000000D+00 -0.00000000D+00 -0.40484045D-05 -0.00000000D+00 -0.00000000D+00
  0.28388380D-04 -0.00000000D+00 -0.00000000D+00  0.17060198D-03  0.00000000D+00
 -0.00000000D+00 -0.19376909D-07 -0.30856394D-08 -0.30856394D-08 -0.00000000D+00
  0.00000000D+00 -0.00000000D+00 -0.65918055D-07 -0.71925740D-07 -0.71925740D-07
  0.00000000D+00  0.00000000D+00  0.00000000D+00
MO    2     MO 0.0        OCC NO =    0.0000000  ORB. ENERGY =    0.003308
  0.14909449D-04 -0.19672942D-02 -0.21046299D-04 -0.32529835D-02 -0.29940866D-02
 -0.86450351D-02 -0.10157076D-01  0.19548772D-01  0.33778095D-02 -0.20735528D-03
 -0.40936719D-06  0.00000000D+00 -0.00000000D+00 -0.40435291D-04  0.00000000D+00
  0.00000000D+00  0.28456640D-04 -0.00000000D+00 -0.00000000D+00 -0.23766137D-03
  0.00000000D+00  0.00000000D+00 -0.38638943D-08 -0.32907148D-08 -0.32907148D-08
  0.00000000D+00 -0.00000000D+00  0.00000000D+00 -0.28368159D-06 -0.61731585D-07
 -0.61731585D-07  0.00000000D+00 -0.00000000D+00  0.00000000D+00 -0.14909449D-04
  0.19672942D-02  0.21046299D-04  0.32529835D-02  0.29940866D-02  0.86450351D-02
  0.10157076D-01 -0.19548772D-01 -0.33778095D-02  0.20735528D-03 -0.40936719D-06
 -0.00000000D+00  0.00000000D+00 -0.40435291D-04  0.00000000D+00  0.00000000D+00
  0.28456640D-04 -0.00000000D+00 -0.00000000D+00 -0.23766137D-03  0.00000000D+00
 -0.00000000D+00  0.38638943D-08  0.32907148D-08  0.32907148D-08 -0.00000000D+00
 -0.00000000D+00  0.00000000D+00  0.28368159D-06  0.61731585D-07  0.61731585D-07
 -0.00000000D+00  0.00000000D+00 -0.00000000D+00
MO    3     MO 0.0        OCC NO =    0.0000000  ORB. ENERGY =    0.006414
 -0.41257031D-03 -0.24104451D-03  0.33033431D-02 -0.58121416D-02 -0.16435866D-02
 -0.81674805D-02 -0.73511118D-02  0.15169845D-01  0.30348465D-02 -0.29256897D-03
  0.11070581D-04 -0.00000000D+00 -0.00000000D+00 -0.16095319D-04 -0.00000000D+00
  0.00000000D+00  0.11774146D-03  0.00000000D+00 -0.00000000D+00 -0.16860665D-03
 -0.00000000D+00  0.00000000D+00  0.63413293D-07  0.39683511D-08  0.39683511D-08
 -0.00000000D+00 -0.00000000D+00  0.00000000D+00  0.18066995D-07  0.88133983D-07
  0.88133983D-07  0.00000000D+00 -0.00000000D+00  0.00000000D+00 -0.41257031D-03
 -0.24104451D-03  0.33033431D-02 -0.58121416D-02 -0.16435866D-02 -0.81674805D-02
 -0.73511118D-02  0.15169845D-01  0.30348465D-02 -0.29256897D-03 -0.11070581D-04
  0.00000000D+00  0.00000000D+00  0.16095319D-04 -0.00000000D+00  0.00000000D+00
 -0.11774146D-03  0.00000000D+00 -0.00000000D+00  0.16860665D-03 -0.00000000D+00
  0.00000000D+00  0.63413293D-07  0.39683511D-08  0.39683511D-08 -0.00000000D+00
 -0.00000000D+00  0.00000000D+00  0.18066995D-07  0.88133983D-07  0.88133983D-07
 -0.00000000D+00  0.00000000D+00 -0.00000000D+00
MO    4     MO 0.0        OCC NO =    0.0000000  ORB. ENERGY =    0.012776
 -0.32095052D-05 -0.46100434D-02  0.31532818D-02  0.23007112D-02 -0.11524828D-01
 -0.35831385D-02 -0.10680892D-01  0.17431930D-01  0.18826028D-02  0.19566579D-03
  0.14385098D-05  0.00000000D+00 -0.00000000D+00 -0.82180169D-04 -0.00000000D+00
  0.00000000D+00  0.55237008D-04  0.00000000D+00 -0.00000000D+00  0.37292334D-03
 -0.00000000D+00  0.00000000D+00  0.14304093D-07  0.11186516D-07  0.11186516D-07
 -0.00000000D+00 -0.00000000D+00  0.00000000D+00 -0.30896437D-06  0.14281699D-06
  0.14281699D-06  0.00000000D+00 -0.00000000D+00 -0.00000000D+00  0.32095052D-05
  0.46100434D-02 -0.31532818D-02 -0.23007112D-02  0.11524828D-01  0.35831385D-02
  0.10680892D-01 -0.17431930D-01 -0.18826028D-02 -0.19566579D-03  0.14385098D-05
 -0.00000000D+00  0.00000000D+00 -0.82180169D-04  0.00000000D+00  0.00000000D+00
  0.55237008D-04 -0.00000000D+00 -0.00000000D+00  0.37292334D-03  0.00000000D+00
 -0.00000000D+00 -0.14304093D-07 -0.11186516D-07 -0.11186516D-07  0.00000000D+00
 -0.00000000D+00 -0.00000000D+00  0.30896437D-06 -0.14281699D-06 -0.14281699D-06
  0.00000000D+00  0.00000000D+00  0.00000000D+00
MO    5     MO 0.0        OCC NO =    0.0000000  ORB. ENERGY =    0.014386
 -0.00000000D+00  0.00000000D+00 -0.00000000D+00  0.00000000D+00 -0.00000000D+00
  0.00000000D+00 -0.00000000D+00  0.00000000D+00 -0.00000000D+00  0.00000000D+00
  0.00000000D+00  0.10763734D-06  0.81523884D-06  0.00000000D+00 -0.11004727D-05
 -0.83349127D-05 -0.00000000D+00  0.15245677D-04  0.11546983D-03  0.00000000D+00
  0.25965950D-04  0.19666451D-03  0.00000000D+00  0.00000000D+00  0.00000000D+00
 -0.24187456D-08 -0.18319430D-07 -0.00000000D+00  0.00000000D+00  0.00000000D+00
  0.00000000D+00  0.27372836D-07  0.20732017D-06  0.00000000D+00  0.00000000D+00
 -0.00000000D+00  0.00000000D+00 -0.00000000D+00  0.00000000D+00  0.00000000D+00
  0.00000000D+00 -0.00000000D+00 -0.00000000D+00 -0.00000000D+00  0.00000000D+00
  0.10763734D-06  0.81523884D-06  0.00000000D+00 -0.11004727D-05 -0.83349127D-05
 -0.00000000D+00  0.15245677D-04  0.11546983D-03  0.00000000D+00  0.25965950D-04
  0.19666451D-03 -0.00000000D+00 -0.00000000D+00 -0.00000000D+00  0.24187456D-08
  0.18319430D-07  0.00000000D+00 -0.00000000D+00 -0.00000000D+00 -0.00000000D+00
 -0.27372836D-07 -0.20732017D-06 -0.00000000D+00
MO    6     MO 0.0        OCC NO =    0.0000000  ORB. ENERGY =    0.014386
  0.00000000D+00 -0.00000000D+00  0.00000000D+00 -0.00000000D+00  0.00000000D+00
  0.00000000D+00  0.00000000D+00 -0.00000000D+00  0.00000000D+00 -0.00000000D+00
 -0.00000000D+00  0.81523884D-06 -0.10763734D-06 -0.00000000D+00 -0.83349127D-05
  0.11004727D-05  0.00000000D+00  0.11546983D-03 -0.15245677D-04 -0.00000000D+00
  0.19666451D-03 -0.25965950D-04 -0.00000000D+00 -0.00000000D+00 -0.00000000D+00
 -0.18319430D-07  0.24187456D-08  0.00000000D+00 -0.00000000D+00 -0.00000000D+00
 -0.00000000D+00  0.20732017D-06 -0.27372836D-07 -0.00000000D+00 -0.00000000D+00
  0.00000000D+00 -0.00000000D+00  0.00000000D+00 -0.00000000D+00 -0.00000000D+00
 -0.00000000D+00  0.00000000D+00  0.00000000D+00  0.00000000D+00 -0.00000000D+00
  0.81523884D-06 -0.10763734D-06 -0.00000000D+00 -0.83349127D-05  0.11004727D-05
  0.00000000D+00  0.11546983D-03 -0.15245677D-04 -0.00000000D+00  0.19666451D-03
 -0.25965950D-04  0.00000000D+00  0.00000000D+00  0.00000000D+00  0.18319430D-07
 -0.24187456D-08  0.00000000D+00  0.00000000D+00  0.00000000D+00  0.00000000D+00
 -0.20732017D-06  0.27372836D-07  0.00000000D+00
MO    7     MO 0.0        OCC NO =    0.0000000  ORB. ENERGY =    0.014786
 -0.25180816D-03 -0.62738676D-03 -0.44535272D-03  0.10443661D-01 -0.16233960D-01
  0.75484681D-03 -0.11170567D-01  0.15794294D-01  0.63230730D-03  0.52845514D-03
 -0.64200172D-05 -0.00000000D+00  0.00000000D+00  0.50160917D-05 -0.00000000D+00
  0.00000000D+00 -0.12677625D-03  0.00000000D+00  0.00000000D+00  0.70601087D-03
  0.00000000D+00  0.00000000D+00 -0.19480410D-07  0.14084183D-07  0.14084183D-07
 -0.00000000D+00  0.00000000D+00 -0.00000000D+00  0.24856876D-06  0.30885717D-06
  0.30885717D-06 -0.00000000D+00  0.00000000D+00  0.00000000D+00 -0.25180816D-03
 -0.62738676D-03 -0.44535272D-03  0.10443661D-01 -0.16233960D-01  0.75484681D-03
 -0.11170567D-01  0.15794294D-01  0.63230730D-03  0.52845514D-03  0.64200172D-05
  0.00000000D+00 -0.00000000D+00 -0.50160917D-05  0.00000000D+00 -0.00000000D+00
  0.12677625D-03 -0.00000000D+00  0.00000000D+00 -0.70601087D-03  0.00000000D+00
  0.00000000D+00 -0.19480410D-07  0.14084183D-07  0.14084183D-07 -0.00000000D+00
  0.00000000D+00  0.00000000D+00  0.24856876D-06  0.30885717D-06  0.30885717D-06
 -0.00000000D+00  0.00000000D+00 -0.00000000D+00
MO    8     MO 0.0        OCC NO =    0.0000000  ORB. ENERGY =    0.016797
  0.00000000D+00  0.00000000D+00 -0.00000000D+00  0.00000000D+00 -0.00000000D+00
  0.00000000D+00 -0.00000000D+00  0.00000000D+00 -0.00000000D+00  0.00000000D+00
 -0.00000000D+00 -0.16460745D-06 -0.58445013D-06  0.00000000D+00 -0.59879868D-06
 -0.21260754D-05 -0.00000000D+00 -0.31291611D-05 -0.11110297D-04  0.00000000D+00
 -0.16279601D-03 -0.57801823D-03 -0.00000000D+00  0.00000000D+00  0.00000000D+00
 -0.27426047D-09 -0.97378374D-09 -0.00000000D+00  0.00000000D+00  0.00000000D+00
  0.00000000D+00 -0.22150271D-07 -0.78646046D-07  0.00000000D+00  0.00000000D+00
 -0.00000000D+00  0.00000000D+00 -0.00000000D+00  0.00000000D+00 -0.00000000D+00
  0.00000000D+00 -0.00000000D+00  0.00000000D+00 -0.00000000D+00  0.00000000D+00
  0.16460745D-06  0.58445013D-06  0.00000000D+00  0.59879868D-06  0.21260754D-05
 -0.00000000D+00  0.31291611D-05  0.11110297D-04  0.00000000D+00  0.16279601D-03
  0.57801823D-03 -0.00000000D+00 -0.00000000D+00 -0.00000000D+00 -0.27426047D-09
 -0.97378374D-09  0.00000000D+00 -0.00000000D+00 -0.00000000D+00 -0.00000000D+00
 -0.22150271D-07 -0.78646046D-07 -0.00000000D+00
MO    9     MO 0.0        OCC NO =    0.0000000  ORB. ENERGY =    0.016797
  0.00000000D+00 -0.00000000D+00  0.00000000D+00 -0.00000000D+00  0.00000000D+00
  0.00000000D+00  0.00000000D+00 -0.00000000D+00 -0.00000000D+00  0.00000000D+00
  0.00000000D+00 -0.58445013D-06  0.16460745D-06 -0.00000000D+00 -0.21260754D-05
  0.59879868D-06  0.00000000D+00 -0.11110297D-04  0.31291611D-05 -0.00000000D+00
 -0.57801823D-03  0.16279601D-03  0.00000000D+00 -0.00000000D+00 -0.00000000D+00
 -0.97378374D-09  0.27426047D-09  0.00000000D+00 -0.00000000D+00 -0.00000000D+00
 -0.00000000D+00 -0.78646046D-07  0.22150271D-07  0.00000000D+00 -0.00000000D+00
  0.00000000D+00 -0.00000000D+00  0.00000000D+00 -0.00000000D+00  0.00000000D+00
 -0.00000000D+00  0.00000000D+00 -0.00000000D+00  0.00000000D+00 -0.00000000D+00
  0.58445013D-06 -0.16460745D-06 -0.00000000D+00  0.21260754D-05 -0.59879868D-06
  0.00000000D+00  0.11110297D-04 -0.31291611D-05 -0.00000000D+00  0.57801823D-03
 -0.16279601D-03  0.00000000D+00  0.00000000D+00  0.00000000D+00 -0.97378374D-09
  0.27426047D-09 -0.00000000D+00  0.00000000D+00  0.00000000D+00  0.00000000D+00
 -0.78646046D-07  0.22150271D-07 -0.00000000D+00
MO   10     MO 0.0        OCC NO =    0.0000000  ORB. ENERGY =    0.019376
 -0.71337634D-04  0.18925034D-01 -0.95669814D-02  0.14558749D-01 -0.11941548D-01
  0.27871975D-02 -0.57860083D-02  0.69458345D-02 -0.32019065D-03  0.42770284D-03
 -0.66923115D-06  0.00000000D+00 -0.00000000D+00  0.36557603D-03 -0.00000000D+00
  0.00000000D+00 -0.35538324D-03 -0.00000000D+00 -0.00000000D+00  0.60233101D-03
  0.00000000D+00  0.00000000D+00 -0.49223806D-08 -0.58439624D-08 -0.58439624D-08
  0.00000000D+00 -0.00000000D+00 -0.00000000D+00  0.20259299D-05  0.68102220D-07
  0.68102220D-07 -0.00000000D+00  0.00000000D+00 -0.00000000D+00  0.71337634D-04
 -0.18925034D-01  0.95669814D-02 -0.14558749D-01  0.11941548D-01 -0.27871975D-02
  0.57860083D-02 -0.69458345D-02  0.32019065D-03 -0.42770284D-03 -0.66923115D-06
 -0.00000000D+00  0.00000000D+00  0.36557603D-03  0.00000000D+00 -0.00000000D+00
 -0.35538324D-03  0.00000000D+00 -0.00000000D+00  0.60233101D-03  0.00000000D+00
 -0.00000000D+00  0.49223806D-08  0.58439624D-08  0.58439624D-08  0.00000000D+00
 -0.00000000D+00  0.00000000D+00 -0.20259299D-05 -0.68102220D-07 -0.68102220D-07
 -0.00000000D+00  0.00000000D+00 -0.00000000D+00
MO   11     MO 0.0        OCC NO =    0.0000000  ORB. ENERGY =    0.020532
  0.00000000D+00 -0.00000000D+00  0.00000000D+00 -0.00000000D+00  0.00000000D+00
  0.00000000D+00  0.00000000D+00 -0.00000000D+00  0.00000000D+00  0.00000000D+00
  0.00000000D+00 -0.86904739D-06 -0.56402927D-06 -0.00000000D+00  0.94173999D-05
  0.61120812D-05  0.00000000D+00 -0.16315610D-03 -0.10589158D-03 -0.00000000D+00
  0.73005331D-03  0.47381924D-03  0.00000000D+00 -0.00000000D+00 -0.00000000D+00
  0.17874109D-07  0.11600653D-07 -0.00000000D+00 -0.00000000D+00 -0.00000000D+00
 -0.00000000D+00 -0.20752553D-06 -0.13468824D-06 -0.00000000D+00 -0.00000000D+00
  0.00000000D+00 -0.00000000D+00  0.00000000D+00 -0.00000000D+00  0.00000000D+00
 -0.00000000D+00  0.00000000D+00  0.00000000D+00 -0.00000000D+00 -0.00000000D+00
 -0.86904739D-06 -0.56402927D-06 -0.00000000D+00  0.94173999D-05  0.61120812D-05
  0.00000000D+00 -0.16315610D-03 -0.10589158D-03 -0.00000000D+00  0.73005331D-03
  0.47381924D-03  0.00000000D+00  0.00000000D+00  0.00000000D+00 -0.17874109D-07
 -0.11600653D-07 -0.00000000D+00  0.00000000D+00  0.00000000D+00  0.00000000D+00
  0.20752553D-06  0.13468824D-06  0.00000000D+00
MO   12     MO 0.0        OCC NO =    0.0000000  ORB. ENERGY =    0.020532
  0.00000000D+00  0.00000000D+00 -0.00000000D+00  0.00000000D+00 -0.00000000D+00
  0.00000000D+00 -0.00000000D+00  0.00000000D+00  0.00000000D+00 -0.00000000D+00
 -0.00000000D+00  0.56402927D-06 -0.86904739D-06  0.00000000D+00 -0.61120812D-05
  0.94173999D-05 -0.00000000D+00  0.10589158D-03 -0.16315610D-03  0.00000000D+00
 -0.47381924D-03  0.73005331D-03 -0.00000000D+00  0.00000000D+00  0.00000000D+00
 -0.11600653D-07  0.17874109D-07 -0.00000000D+00  0.00000000D+00 -0.00000000D+00
 -0.00000000D+00  0.13468824D-06 -0.20752553D-06 -0.00000000D+00  0.00000000D+00
 -0.00000000D+00  0.00000000D+00 -0.00000000D+00  0.00000000D+00 -0.00000000D+00
  0.00000000D+00 -0.00000000D+00 -0.00000000D+00 -0.00000000D+00  0.00000000D+00
  0.56402927D-06 -0.86904739D-06  0.00000000D+00 -0.61120812D-05  0.94173999D-05
 -0.00000000D+00  0.10589158D-03 -0.16315610D-03 -0.00000000D+00 -0.47381924D-03
  0.73005331D-03 -0.00000000D+00 -0.00000000D+00 -0.00000000D+00  0.11600653D-07
 -0.17874109D-07 -0.00000000D+00 -0.00000000D+00 -0.00000000D+00  0.00000000D+00
 -0.13468824D-06  0.20752553D-06  0.00000000D+00
MO   13     MO 0.0        OCC NO =    0.0000000  ORB. ENERGY =    0.024770
 -0.37783391D-03 -0.11168486D-03  0.49819241D-03 -0.75992014D-02  0.11927890D-01
  0.91403737D-03  0.66206632D-02 -0.10042703D-01 -0.80134170D-03 -0.21214004D-03
  0.83457049D-05 -0.00000000D+00 -0.00000000D+00 -0.11031426D-04  0.00000000D+00
 -0.00000000D+00  0.53850718D-04 -0.00000000D+00  0.00000000D+00  0.24639557D-03
  0.00000000D+00 -0.00000000D+00  0.50715493D-07  0.53947275D-08  0.53947275D-08
 -0.00000000D+00 -0.00000000D+00  0.00000000D+00  0.38952096D-07  0.93912029D-07
  0.93912029D-07  0.00000000D+00 -0.00000000D+00 -0.00000000D+00 -0.37783391D-03
 -0.11168486D-03  0.49819241D-03 -0.75992014D-02  0.11927890D-01  0.91403737D-03
  0.66206632D-02 -0.10042703D-01 -0.80134170D-03 -0.21214004D-03 -0.83457049D-05
  0.00000000D+00  0.00000000D+00  0.11031426D-04 -0.00000000D+00  0.00000000D+00
 -0.53850718D-04  0.00000000D+00 -0.00000000D+00 -0.24639557D-03 -0.00000000D+00
  0.00000000D+00  0.50715493D-07  0.53947275D-08  0.53947275D-08 -0.00000000D+00
  0.00000000D+00 -0.00000000D+00  0.38952096D-07  0.93912029D-07  0.93912029D-07
  0.00000000D+00 -0.00000000D+00  0.00000000D+00
MO   14     MO 0.0        OCC NO =    0.0000000  ORB. ENERGY =    0.026262
 -0.00000000D+00 -0.00000000D+00  0.00000000D+00 -0.00000000D+00  0.00000000D+00
 -0.00000000D+00  0.00000000D+00 -0.00000000D+00  0.00000000D+00 -0.00000000D+00
 -0.00000000D+00  0.16556901D-04  0.26116685D-04 -0.00000000D+00 -0.18128791D-04
 -0.28596169D-04  0.00000000D+00  0.17310923D-03  0.27306073D-03 -0.00000000D+00
 -0.39378484D-03 -0.62115215D-03 -0.00000000D+00 -0.00000000D+00 -0.00000000D+00
  0.83050830D-07  0.13100353D-06 -0.00000000D+00 -0.00000000D+00 -0.00000000D+00
 -0.00000000D+00 -0.36677935D-07 -0.57855405D-07  0.00000000D+00 -0.00000000D+00
  0.00000000D+00 -0.00000000D+00  0.00000000D+00 -0.00000000D+00  0.00000000D+00
 -0.00000000D+00  0.00000000D+00  0.00000000D+00 -0.00000000D+00 -0.00000000D+00
 -0.16556901D-04 -0.26116685D-04 -0.00000000D+00  0.18128791D-04  0.28596169D-04
  0.00000000D+00 -0.17310923D-03 -0.27306073D-03  0.00000000D+00  0.39378484D-03
  0.62115215D-03  0.00000000D+00  0.00000000D+00  0.00000000D+00  0.83050830D-07
  0.13100353D-06  0.00000000D+00  0.00000000D+00  0.00000000D+00  0.00000000D+00
 -0.36677935D-07 -0.57855405D-07 -0.00000000D+00
MO   15     MO 0.0        OCC NO =    0.0000000  ORB. ENERGY =    0.026262
 -0.00000000D+00 -0.00000000D+00  0.00000000D+00 -0.00000000D+00  0.00000000D+00
  0.00000000D+00  0.00000000D+00 -0.00000000D+00 -0.00000000D+00  0.00000000D+00
 -0.00000000D+00  0.26116685D-04 -0.16556901D-04 -0.00000000D+00 -0.28596169D-04
  0.18128791D-04  0.00000000D+00  0.27306073D-03 -0.17310923D-03  0.00000000D+00
 -0.62115215D-03  0.39378484D-03  0.00000000D+00 -0.00000000D+00 -0.00000000D+00
  0.13100353D-06 -0.83050830D-07 -0.00000000D+00 -0.00000000D+00 -0.00000000D+00
 -0.00000000D+00 -0.57855405D-07  0.36677935D-07  0.00000000D+00  0.00000000D+00
  0.00000000D+00 -0.00000000D+00  0.00000000D+00 -0.00000000D+00  0.00000000D+00
 -0.00000000D+00  0.00000000D+00 -0.00000000D+00  0.00000000D+00 -0.00000000D+00
 -0.26116685D-04  0.16556901D-04 -0.00000000D+00  0.28596169D-04 -0.18128791D-04
  0.00000000D+00 -0.27306073D-03  0.17310923D-03  0.00000000D+00  0.62115215D-03
 -0.39378484D-03  0.00000000D+00  0.00000000D+00  0.00000000D+00  0.13100353D-06
 -0.83050830D-07 -0.00000000D+00  0.00000000D+00  0.00000000D+00  0.00000000D+00
 -0.57855405D-07  0.36677935D-07  0.00000000D+00
MO   16     MO 0.0        OCC NO =    0.0000000  ORB. ENERGY =    0.026502
  0.17705906D-04 -0.44963101D-02  0.40123959D-02 -0.13039424D-01  0.15263836D-01
  0.20932393D-03  0.76007683D-02 -0.11096467D-01 -0.69437941D-03 -0.29712870D-03
  0.17022200D-06 -0.00000000D+00 -0.00000000D+00 -0.89944434D-04  0.00000000D+00
  0.00000000D+00  0.16061539D-03 -0.00000000D+00 -0.00000000D+00  0.25433505D-03
  0.00000000D+00  0.00000000D+00 -0.60081778D-09  0.28177260D-08  0.28177260D-08
 -0.00000000D+00 -0.00000000D+00  0.00000000D+00 -0.49671230D-06 -0.52261057D-07
 -0.52261057D-07  0.00000000D+00  0.00000000D+00 -0.00000000D+00 -0.17705906D-04
  0.44963101D-02 -0.40123959D-02  0.13039424D-01 -0.15263836D-01 -0.20932393D-03
 -0.76007683D-02  0.11096467D-01  0.69437941D-03  0.29712870D-03  0.17022200D-06
  0.00000000D+00  0.00000000D+00 -0.89944434D-04 -0.00000000D+00 -0.00000000D+00
  0.16061539D-03  0.00000000D+00  0.00000000D+00  0.25433505D-03 -0.00000000D+00
 -0.00000000D+00  0.60081778D-09 -0.28177260D-08 -0.28177260D-08 -0.00000000D+00
  0.00000000D+00 -0.00000000D+00  0.49671230D-06  0.52261057D-07  0.52261057D-07
  0.00000000D+00 -0.00000000D+00 -0.00000000D+00
MO   17     MO 0.0        OCC NO =    0.0000000  ORB. ENERGY =    0.031203
  0.39382262D-02  0.35744167D-02 -0.15433534D-01  0.13699255D-01 -0.81360044D-02
 -0.17927751D-02 -0.26517927D-02  0.48217533D-02  0.78152040D-03 -0.24385682D-04
 -0.48962764D-04  0.00000000D+00  0.00000000D+00  0.88752048D-04 -0.00000000D+00
 -0.00000000D+00 -0.19376264D-03  0.00000000D+00  0.00000000D+00  0.48868665D-03
 -0.00000000D+00 -0.00000000D+00 -0.36748980D-06 -0.89522899D-07 -0.89522899D-07
  0.00000000D+00  0.00000000D+00  0.00000000D+00 -0.91846968D-06 -0.18296427D-05
 -0.18296427D-05 -0.00000000D+00 -0.00000000D+00 -0.00000000D+00  0.39382262D-02
  0.35744167D-02 -0.15433534D-01  0.13699255D-01 -0.81360044D-02 -0.17927751D-02
 -0.26517927D-02  0.48217533D-02  0.78152040D-03 -0.24385682D-04  0.48962764D-04
 -0.00000000D+00 -0.00000000D+00 -0.88752048D-04  0.00000000D+00  0.00000000D+00
  0.19376264D-03 -0.00000000D+00 -0.00000000D+00 -0.48868665D-03  0.00000000D+00
 -0.00000000D+00 -0.36748980D-06 -0.89522899D-07 -0.89522899D-07  0.00000000D+00
  0.00000000D+00 -0.00000000D+00 -0.91846968D-06 -0.18296427D-05 -0.18296427D-05
 -0.00000000D+00 -0.00000000D+00  0.00000000D+00
MO   18     MO 0.0        OCC NO =    0.0000000  ORB. ENERGY =    0.032557
 -0.57199730D-03 -0.18937161D-02  0.94289350D-02 -0.15807789D-01  0.13394211D-01
  0.28297050D-03  0.53005478D-02 -0.77943789D-02 -0.53208893D-03 -0.19719359D-03
 -0.81749876D-05 -0.00000000D+00 -0.00000000D+00  0.33536534D-05  0.00000000D+00
  0.00000000D+00 -0.17037687D-03  0.00000000D+00  0.00000000D+00  0.49521148D-03
 -0.00000000D+00 -0.00000000D+00 -0.15563072D-07  0.26877954D-07  0.26877954D-07
 -0.00000000D+00 -0.00000000D+00 -0.00000000D+00  0.50906951D-06  0.63023006D-06
  0.63023006D-06 -0.00000000D+00  0.00000000D+00  0.00000000D+00 -0.57199730D-03
 -0.18937161D-02  0.94289350D-02 -0.15807789D-01  0.13394211D-01  0.28297050D-03
  0.53005478D-02 -0.77943789D-02 -0.53208893D-03 -0.19719359D-03  0.81749876D-05
  0.00000000D+00  0.00000000D+00 -0.33536534D-05  0.00000000D+00 -0.00000000D+00
  0.17037687D-03 -0.00000000D+00  0.00000000D+00 -0.49521148D-03  0.00000000D+00
 -0.00000000D+00 -0.15563072D-07  0.26877954D-07  0.26877954D-07  0.00000000D+00
 -0.00000000D+00  0.00000000D+00  0.50906951D-06  0.63023006D-06  0.63023006D-06
  0.00000000D+00  0.00000000D+00 -0.00000000D+00
MO   19     MO 0.0        OCC NO =    0.0000000  ORB. ENERGY =    0.033374
  0.82810760D-04 -0.16161466D-01 -0.17811049D-02  0.79248979D-02 -0.81631344D-02
  0.84363766D-03 -0.34022752D-02  0.44490873D-02  0.36026449D-04  0.19897011D-03
 -0.88210487D-06 -0.00000000D+00  0.00000000D+00 -0.33687444D-03  0.00000000D+00
 -0.00000000D+00  0.38075422D-03 -0.00000000D+00  0.00000000D+00 -0.57892525D-03
  0.00000000D+00  0.00000000D+00 -0.84650895D-08 -0.42621878D-08 -0.42621878D-08
 -0.00000000D+00  0.00000000D+00  0.00000000D+00 -0.21377171D-05 -0.33146262D-06
 -0.33146262D-06  0.00000000D+00 -0.00000000D+00  0.00000000D+00 -0.82810760D-04
  0.16161466D-01  0.17811049D-02 -0.79248979D-02  0.81631344D-02 -0.84363766D-03
  0.34022752D-02 -0.44490873D-02 -0.36026449D-04 -0.19897011D-03 -0.88210487D-06
  0.00000000D+00 -0.00000000D+00 -0.33687444D-03 -0.00000000D+00  0.00000000D+00
  0.38075422D-03  0.00000000D+00 -0.00000000D+00 -0.57892525D-03 -0.00000000D+00
  0.00000000D+00  0.84650895D-08  0.42621878D-08  0.42621878D-08 -0.00000000D+00
  0.00000000D+00 -0.00000000D+00  0.21377171D-05  0.33146262D-06  0.33146262D-06
  0.00000000D+00 -0.00000000D+00  0.00000000D+00
MO   20     MO 0.0        OCC NO =    0.0000000  ORB. ENERGY =    0.039575
  0.78318351D-03  0.65719881D-02 -0.15810301D-01  0.11908305D-01 -0.54432576D-02
 -0.32650267D-02 -0.12611855D-02  0.34602901D-02  0.98931414D-03 -0.15195158D-03
 -0.49807727D-04 -0.00000000D+00 -0.00000000D+00  0.12753341D-03  0.00000000D+00
  0.00000000D+00  0.74636386D-04 -0.00000000D+00 -0.00000000D+00 -0.80183367D-04
  0.00000000D+00  0.00000000D+00 -0.63103259D-06 -0.55571573D-06 -0.55571573D-06
 -0.00000000D+00 -0.00000000D+00 -0.00000000D+00 -0.30632359D-05 -0.36632232D-05
 -0.36632232D-05  0.00000000D+00  0.00000000D+00 -0.00000000D+00 -0.78318351D-03
 -0.65719881D-02  0.15810301D-01 -0.11908305D-01  0.54432576D-02  0.32650267D-02
  0.12611855D-02 -0.34602901D-02 -0.98931414D-03  0.15195158D-03 -0.49807727D-04
  0.00000000D+00  0.00000000D+00  0.12753341D-03 -0.00000000D+00 -0.00000000D+00
  0.74636386D-04  0.00000000D+00  0.00000000D+00 -0.80183367D-04 -0.00000000D+00
 -0.00000000D+00  0.63103259D-06  0.55571573D-06  0.55571573D-06 -0.00000000D+00
 -0.00000000D+00  0.00000000D+00  0.30632359D-05  0.36632232D-05  0.36632232D-05
  0.00000000D+00  0.00000000D+00  0.00000000D+00
MO   21     MO 0.0        OCC NO =    0.0000000  ORB. ENERGY =    0.042598
  0.00000000D+00 -0.00000000D+00  0.00000000D+00 -0.00000000D+00  0.00000000D+00
  0.00000000D+00  0.00000000D+00 -0.00000000D+00 -0.00000000D+00  0.00000000D+00
 -0.00000000D+00  0.00000000D+00 -0.00000000D+00 -0.00000000D+00 -0.00000000D+00
  0.00000000D+00  0.00000000D+00 -0.00000000D+00  0.00000000D+00  0.00000000D+00
  0.00000000D+00 -0.00000000D+00 -0.00000000D+00  0.53036948D-08 -0.53036948D-08
  0.00000000D+00 -0.00000000D+00 -0.10630946D-06 -0.00000000D+00 -0.67939991D-07
  0.67939991D-07 -0.00000000D+00  0.00000000D+00  0.13618172D-05 -0.00000000D+00
  0.00000000D+00 -0.00000000D+00  0.00000000D+00 -0.00000000D+00 -0.00000000D+00
 -0.00000000D+00  0.00000000D+00  0.00000000D+00 -0.00000000D+00  0.00000000D+00
 -0.00000000D+00  0.00000000D+00 -0.00000000D+00  0.00000000D+00 -0.00000000D+00
  0.00000000D+00 -0.00000000D+00  0.00000000D+00  0.00000000D+00  0.00000000D+00
 -0.00000000D+00  0.00000000D+00  0.53036948D-08 -0.53036948D-08  0.00000000D+00
 -0.00000000D+00 -0.10630946D-06  0.00000000D+00 -0.67939991D-07  0.67939991D-07
 -0.00000000D+00  0.00000000D+00  0.13618172D-05
MO   22     MO 0.0        OCC NO =    0.0000000  ORB. ENERGY =    0.042598
  0.00000000D+00 -0.00000000D+00  0.00000000D+00 -0.00000000D+00  0.00000000D+00
  0.00000000D+00 -0.00000000D+00 -0.00000000D+00 -0.00000000D+00  0.00000000D+00
 -0.00000000D+00 -0.00000000D+00  0.00000000D+00 -0.00000000D+00  0.00000000D+00
 -0.00000000D+00 -0.00000000D+00 -0.00000000D+00  0.00000000D+00  0.00000000D+00
  0.00000000D+00 -0.00000000D+00 -0.00000000D+00  0.53154729D-07 -0.53154729D-07
 -0.00000000D+00  0.00000000D+00  0.10607389D-07 -0.00000000D+00 -0.68090858D-06
  0.68090858D-06  0.00000000D+00 -0.00000000D+00 -0.13587998D-06 -0.00000000D+00
  0.00000000D+00 -0.00000000D+00  0.00000000D+00 -0.00000000D+00 -0.00000000D+00
  0.00000000D+00  0.00000000D+00  0.00000000D+00 -0.00000000D+00  0.00000000D+00
  0.00000000D+00 -0.00000000D+00 -0.00000000D+00 -0.00000000D+00  0.00000000D+00
 -0.00000000D+00  0.00000000D+00  0.00000000D+00  0.00000000D+00  0.00000000D+00
 -0.00000000D+00  0.00000000D+00  0.53154729D-07 -0.53154729D-07 -0.00000000D+00
  0.00000000D+00  0.10607389D-07  0.00000000D+00 -0.68090858D-06  0.68090858D-06
  0.00000000D+00 -0.00000000D+00 -0.13587998D-06
MO   23     MO 0.0        OCC NO =    0.0000000  ORB. ENERGY =    0.042680
  0.72994185D-02 -0.32501078D-02 -0.18335338D-02 -0.36425833D-03 -0.73007546D-04
  0.13170216D-02 -0.17571209D-03 -0.40119338D-03 -0.33226528D-03  0.86942833D-04
 -0.98058556D-04  0.00000000D+00 -0.00000000D+00  0.37920224D-04 -0.00000000D+00
  0.00000000D+00 -0.39765118D-04 -0.00000000D+00 -0.00000000D+00  0.25455971D-04
  0.00000000D+00  0.00000000D+00 -0.80756371D-06 -0.19708418D-06 -0.19708418D-06
  0.00000000D+00 -0.00000000D+00  0.00000000D+00 -0.93714228D-06 -0.14722738D-05
 -0.14722738D-05 -0.00000000D+00  0.00000000D+00 -0.00000000D+00  0.72994185D-02
 -0.32501078D-02 -0.18335338D-02 -0.36425833D-03 -0.73007546D-04  0.13170216D-02
 -0.17571209D-03 -0.40119338D-03 -0.33226528D-03  0.86942833D-04  0.98058556D-04
 -0.00000000D+00  0.00000000D+00 -0.37920224D-04  0.00000000D+00 -0.00000000D+00
  0.39765118D-04 -0.00000000D+00  0.00000000D+00 -0.25455971D-04  0.00000000D+00
 -0.00000000D+00 -0.80756371D-06 -0.19708418D-06 -0.19708418D-06  0.00000000D+00
 -0.00000000D+00 -0.00000000D+00 -0.93714228D-06 -0.14722738D-05 -0.14722738D-05
 -0.00000000D+00  0.00000000D+00  0.00000000D+00
MO   24     MO 0.0        OCC NO =    0.0000000  ORB. ENERGY =    0.042972
 -0.36949248D-03  0.53085180D-01 -0.13389130D-01  0.11597912D-01 -0.31137354D-02
 -0.82274834D-02  0.13889084D-03  0.38579779D-02  0.21337332D-02 -0.49676205D-03
  0.84191450D-05  0.00000000D+00 -0.00000000D+00  0.83773392D-03 -0.00000000D+00
  0.00000000D+00  0.48449362D-04 -0.00000000D+00  0.00000000D+00 -0.89469999D-04
  0.00000000D+00 -0.00000000D+00  0.18105390D-06  0.23213404D-06  0.23213404D-06
  0.00000000D+00 -0.00000000D+00 -0.00000000D+00  0.42039494D-05 -0.84725093D-06
 -0.84725093D-06 -0.00000000D+00  0.00000000D+00  0.00000000D+00  0.36949248D-03
 -0.53085180D-01  0.13389130D-01 -0.11597912D-01  0.31137354D-02  0.82274834D-02
 -0.13889084D-03 -0.38579779D-02 -0.21337332D-02  0.49676205D-03  0.84191450D-05
 -0.00000000D+00  0.00000000D+00  0.83773392D-03  0.00000000D+00 -0.00000000D+00