[Molden Format]
[Atoms] AU
E+       1       4     0.00000000     0.00000000     0.00000000
E+       2       4    47.20000000     0.00000000     0.00000000
[GTO]
  1 0
s  1 1.00
   1.0000000000E-04   1.0000000000E+00
s  1 1.00
   3.0000000000E-04   1.0000000000E+00
s  1 1.00
   9.0000000000E-04   1.0000000000E+00
s  1 1.00
   2.7000000000E-03   1.0000000000E+00
s  1 1.00
   8.1000000000E-03   1.0000000000E+00
s  1 1.00
   2.4300000000E-02   1.0000000000E+00
s  1 1.00
   7.2900000000E-02   1.0000000000E+00
s  1 1.00
   2.1870000000E-01   1.0000000000E+00
s  1 1.00
   6.5610000000E-01   1.0000000000E+00
s  1 1.00
   1.9683000000E+00   1.0000000000E+00
p  1 1.00
   1.0000000000E-04   1.0000000000E+00
p  1 1.00
   3.0000000000E-04   1.0000000000E+00
p  1 1.00
   9.0000000000E-04   1.0000000000E+00
p  1 1.00
   2.7000000000E-03   1.0000000000E+00
d  1 1.00
   1.0000000000E-04   1.0000000000E+00
d  1 1.00
   3.0000000000E-04   1.0000000000E+00
 
  2 0
s  1 1.00
   1.0000000000E-04   1.0000000000E+00
s  1 1.00
   3.0000000000E-04   1.0000000000E+00
s  1 1.00
   9.0000000000E-04   1.0000000000E+00
s  1 1.00
   2.7000000000E-03   1.0000000000E+00
s  1 1.00
   8.1000000000E-03   1.0000000000E+00
s  1 1.00
   2.4300000000E-02   1.0000000000E+00
s  1 1.00
   7.2900000000E-02   1.0000000000E+00
s  1 1.00
   2.1870000000E-01   1.0000000000E+00
s  1 1.00
   6.5610000000E-01   1.0000000000E+00
s  1 1.00
   1.9683000000E+00   1.0000000000E+00
p  1 1.00
   1.0000000000E-04   1.0000000000E+00
p  1 1.00
   3.0000000000E-04   1.0000000000E+00
p  1 1.00
   9.0000000000E-04   1.0000000000E+00
p  1 1.00
   2.7000000000E-03   1.0000000000E+00
d  1 1.00
   1.0000000000E-04   1.0000000000E+00
d  1 1.00
   3.0000000000E-04   1.0000000000E+00
 
 
[MO]
Ene=    -1.15390E-03
Spin= Alpha
Occup=   1.0000000000
   1      -0.01550865
   2      -0.05417653
   3       0.08739531
   4       0.22628321
   5       0.24988686
   6       0.18673085
   7       0.11243101
   8      -0.09146406
   9      -0.00635756
  10       0.00010286
  11      -0.01376940
  12      -0.00000000
  13      -0.00000000
  14       0.01630566
  15      -0.00000000
  16      -0.00000000
  17      -0.00239926
  18       0.00000000
  19       0.00000000
  20       0.15328931
  21      -0.00000000
  22      -0.00000000
  23      -0.00398112
  24       0.00335318
  25       0.00335318
  26      -0.00000000
  27      -0.00000000
  28      -0.00000000
  29       0.02769222
  30       0.01340647
  31       0.01340647
  32      -0.00000000
  33      -0.00000000
  34       0.00000000
  35      -0.01550865
  36      -0.05417653
  37       0.08739531
  38       0.22628321
  39       0.24988686
  40       0.18673085
  41       0.11243101
  42      -0.09146406
  43      -0.00635756
  44       0.00010286
  45       0.01376940
  46       0.00000000
  47       0.00000000
  48      -0.01630566
  49       0.00000000
  50       0.00000000
  51       0.00239926
  52      -0.00000000
  53      -0.00000000
  54      -0.15328931
  55       0.00000000
  56       0.00000000
  57      -0.00398112
  58       0.00335318
  59       0.00335318
  60      -0.00000000
  61      -0.00000000
  62       0.00000000
  63       0.02769222
  64       0.01340647
  65       0.01340647
  66      -0.00000000
  67      -0.00000000
  68      -0.00000000
Ene=    -8.38930E-04
Spin= Alpha
Occup=   0.0000000000
   1       0.01986983
   2      -1.34497705
   3       0.00733109
   4      -0.29324003
   5      -0.24845688
   6      -0.20894549
   7      -0.11715097
   8       0.09685050
   9       0.00701692
  10      -0.00014948
  11      -0.01632032
  12       0.00000000
  13       0.00000000
  14      -0.64981909
  15      -0.00000000
  16      -0.00000000
  17       0.08053446
  18       0.00000000
  19       0.00000000
  20      -0.17497408
  21      -0.00000000
  22      -0.00000000
  23      -0.01581974
  24      -0.01439901
  25      -0.01439901
  26       0.00000000
  27       0.00000000
  28       0.00000000
  29      -0.19328054
  30      -0.03695287
  31      -0.03695287
  32      -0.00000000
  33      -0.00000000
  34       0.00000000
  35      -0.01986983
  36       1.34497705
  37      -0.00733109
  38       0.29324003
  39       0.24845688
  40       0.20894549
  41       0.11715097
  42      -0.09685050
  43      -0.00701692
  44       0.00014948
  45      -0.01632032
  46      -0.00000000
  47      -0.00000000
  48      -0.64981909
  49       0.00000000
  50       0.00000000
  51       0.08053446
  52       0.00000000
  53      -0.00000000
  54      -0.17497408
  55      -0.00000000
  56       0.00000000
  57       0.01581974
  58       0.01439901
  59       0.01439901
  60       0.00000000
  61       0.00000000
  62       0.00000000
  63       0.19328054
  64       0.03695287
  65       0.03695287
  66      -0.00000000
  67      -0.00000000
  68      -0.00000000
Ene=     4.90609E-03
Spin= Alpha
Occup=   0.0000000000
   1       0.60973757
   2       0.15439931
   3      -0.93284336
   4       0.53387222
   5       0.10533343
   6       0.13699602
   7       0.05215019
   8      -0.04752433
   9      -0.00424303
  10       0.00018380
  11      -0.86857446
  12       0.00000000
  13       0.00000000
  14       0.28895669
  15      -0.00000000
  16      -0.00000000
  17      -0.46168236
  18       0.00000000
  19       0.00000000
  20       0.04809920
  21      -0.00000000
  22      -0.00000000
  23      -0.38652378
  24      -0.02939828
  25      -0.02939828
  26       0.00000000
  27       0.00000000
  28      -0.00000000
  29      -0.01070542
  30      -0.09665000
  31      -0.09665000
  32      -0.00000000
  33      -0.00000000
  34      -0.00000000
  35       0.60973757
  36       0.15439931
  37      -0.93284336
  38       0.53387222
  39       0.10533343
  40       0.13699602
  41       0.05215019
  42      -0.04752433
  43      -0.00424303
  44       0.00018380
  45       0.86857446
  46      -0.00000000
  47      -0.00000000
  48      -0.28895669
  49       0.00000000
  50       0.00000000
  51       0.46168236
  52      -0.00000000
  53      -0.00000000
  54      -0.04809920
  55      -0.00000000
  56       0.00000000
  57      -0.38652378
  58      -0.02939828
  59      -0.02939828
  60       0.00000000
  61       0.00000000
  62       0.00000000
  63      -0.01070542
  64      -0.09665000
  65      -0.09665000
  66      -0.00000000
  67      -0.00000000
  68       0.00000000
Ene=     1.04273E-02
Spin= Alpha
Occup=   0.0000000000
   1      -0.00000000
   2      -0.00000000
   3       0.00000000
   4      -0.00000000
   5       0.00000000
   6      -0.00000000
   7       0.00000000
   8      -0.00000000
   9      -0.00000000
  10       0.00000000
  11       0.00000000
  12       0.03180010
  13       0.02606075
  14      -0.00000000
  15      -0.08693988
  16      -0.07124878
  17       0.00000000
  18       0.28958115
  19       0.23731691
  20      -0.00000000
  21       0.28433235
  22       0.23301543
  23       0.00000000
  24      -0.00000000
  25      -0.00000000
  26      -0.02855109
  27      -0.02339813
  28      -0.00000000
  29      -0.00000000
  30      -0.00000000
  31      -0.00000000
  32       0.05370305
  33       0.04401060
  34       0.00000000
  35      -0.00000000
  36       0.00000000
  37       0.00000000
  38      -0.00000000
  39       0.00000000
  40      -0.00000000
  41       0.00000000
  42      -0.00000000
  43       0.00000000
  44      -0.00000000
  45      -0.00000000
  46       0.03180010
  47       0.02606075
  48      -0.00000000
  49      -0.08693988
  50      -0.07124878
  51       0.00000000
  52       0.28958115
  53       0.23731691
  54       0.00000000
  55       0.28433235
  56       0.23301543
  57       0.00000000
  58       0.00000000
  59       0.00000000
  60       0.02855109
  61       0.02339813
  62       0.00000000
  63       0.00000000
  64       0.00000000
  65       0.00000000
  66      -0.05370305
  67      -0.04401060
  68       0.00000000
Ene=     1.04273E-02
Spin= Alpha
Occup=   0.0000000000
   1       0.00000000
   2       0.00000000
   3      -0.00000000
   4       0.00000000
   5       0.00000000
   6       0.00000000
   7       0.00000000
   8      -0.00000000
   9      -0.00000000
  10       0.00000000
  11      -0.00000000
  12      -0.02606075
  13       0.03180010
  14       0.00000000
  15       0.07124878
  16      -0.08693988
  17      -0.00000000
  18      -0.23731691
  19       0.28958115
  20       0.00000000
  21      -0.23301543
  22       0.28433235
  23      -0.00000000
  24       0.00000000
  25       0.00000000
  26       0.02339813
  27      -0.02855109
  28       0.00000000
  29       0.00000000
  30       0.00000000
  31       0.00000000
  32      -0.04401060
  33       0.05370305
  34      -0.00000000
  35       0.00000000
  36      -0.00000000
  37       0.00000000
  38       0.00000000
  39      -0.00000000
  40      -0.00000000
  41      -0.00000000
  42       0.00000000
  43      -0.00000000
  44       0.00000000
  45       0.00000000
  46      -0.02606075
  47       0.03180010
  48       0.00000000
  49       0.07124878
  50      -0.08693988
  51      -0.00000000
  52      -0.23731691
  53       0.28958115
  54      -0.00000000
  55      -0.23301543
  56       0.28433235
  57      -0.00000000
  58      -0.00000000
  59      -0.00000000
  60      -0.02339813
  61       0.02855109
  62      -0.00000000
  63      -0.00000000
  64      -0.00000000
  65      -0.00000000
  66       0.04401060
  67      -0.05370305
  68       0.00000000
Ene=     1.09008E-02
Spin= Alpha
Occup=   0.0000000000
   1      -0.05444261
   2       7.13586000
   3      -1.19562949
   4      -0.30467373
   5       0.58572650
   6       0.06266320
   7       0.09137815
   8      -0.06438645
   9      -0.00287153
  10      -0.00016758
  11      -0.09681418
  12      -0.00000000
  13      -0.00000000
  14       3.21703006
  15       0.00000000
  16       0.00000000
  17      -0.40861849
  18      -0.00000000
  19      -0.00000000
  20      -0.45641164
  21       0.00000000
  22      -0.00000000
  23      -0.08529925
  24      -0.06492923
  25      -0.06492923
  26      -0.00000000
  27      -0.00000000
  28      -0.00000000
  29       0.65848564
  30      -0.11862241
  31      -0.11862241
  32       0.00000000
  33       0.00000000
  34       0.00000000
  35       0.05444261
  36      -7.13586000
  37       1.19562949
  38       0.30467373
  39      -0.58572650
  40      -0.06266320
  41      -0.09137815
  42       0.06438645
  43       0.00287153
  44       0.00016758
  45      -0.09681418
  46       0.00000000
  47       0.00000000
  48       3.21703006
  49      -0.00000000
  50      -0.00000000
  51      -0.40861849
  52       0.00000000
  53      -0.00000000
  54      -0.45641164
  55       0.00000000
  56      -0.00000000
  57       0.08529925
  58       0.06492923
  59       0.06492923
  60      -0.00000000
  61      -0.00000000
  62       0.00000000
  63      -0.65848564
  64       0.11862241
  65       0.11862241
  66       0.00000000
  67       0.00000000
  68      -0.00000000
Ene=     1.17417E-02
Spin= Alpha
Occup=   0.0000000000
   1       0.14239082
   2      -0.28571979
   3      -0.49483465
   4       1.41684412
   5      -0.80389049
   6       0.04704942
   7      -0.09540779
   8       0.05570441
   9       0.00021816
  10       0.00046837
  11      -0.99038098
  12       0.00000000
  13      -0.00000000
  14       0.26183330
  15      -0.00000000
  16      -0.00000000
  17      -0.66484191
  18       0.00000000
  19       0.00000000
  20       0.81549351
  21       0.00000000
  22      -0.00000000
  23      -0.36125951
  24       0.04700276
  25       0.04700276
  26       0.00000000
  27      -0.00000000
  28       0.00000000
  29       0.20273263
  30       0.15519504
  31       0.15519504
  32      -0.00000000
  33      -0.00000000
  34      -0.00000000
  35       0.14239082
  36      -0.28571979
  37      -0.49483465
  38       1.41684412
  39      -0.80389049
  40       0.04704942
  41      -0.09540779
  42       0.05570441
  43       0.00021816
  44       0.00046837
  45       0.99038098
  46      -0.00000000
  47       0.00000000
  48      -0.26183330
  49       0.00000000
  50       0.00000000
  51       0.66484191
  52       0.00000000
  53      -0.00000000
  54      -0.81549351
  55       0.00000000
  56       0.00000000
  57      -0.36125951
  58       0.04700276
  59       0.04700276
  60       0.00000000
  61      -0.00000000
  62      -0.00000000
  63       0.20273263
  64       0.15519504
  65       0.15519504
  66      -0.00000000
  67      -0.00000000
  68       0.00000000
Ene=     1.26195E-02
Spin= Alpha
Occup=   0.0000000000
   1       0.00000000
   2      -0.00000000
   3       0.00000000
   4      -0.00000000
   5       0.00000000
   6       0.00000000
   7       0.00000000
   8      -0.00000000
   9      -0.00000000
  10       0.00000000
  11      -0.00000000
  12      -0.09872425
  13      -0.07669327
  14      -0.00000000
  15       0.07804760
  16       0.06063075
  17       0.00000000
  18      -0.01171366
  19      -0.00909968
  20      -0.00000000
  21       0.57770970
  22       0.44878989
  23      -0.00000000
  24      -0.00000000
  25      -0.00000000
  26      -0.02662662
  27      -0.02068471
  28      -0.00000000
  29      -0.00000000
  30      -0.00000000
  31      -0.00000000
  32       0.03682721
  33       0.02860897
  34       0.00000000
  35      -0.00000000
  36       0.00000000
  37      -0.00000000
  38       0.00000000
  39      -0.00000000
  40      -0.00000000
  41      -0.00000000
  42       0.00000000
  43       0.00000000
  44      -0.00000000
  45      -0.00000000
  46       0.09872425
  47       0.07669327
  48      -0.00000000
  49      -0.07804760
  50      -0.06063075
  51       0.00000000
  52       0.01171366
  53       0.00909968
  54      -0.00000000
  55      -0.57770970
  56      -0.44878989
  57       0.00000000
  58       0.00000000
  59       0.00000000
  60      -0.02662662
  61      -0.02068471
  62       0.00000000
  63       0.00000000
  64       0.00000000
  65       0.00000000
  66       0.03682721
  67       0.02860897
  68      -0.00000000
Ene=     1.26195E-02
Spin= Alpha
Occup=   0.0000000000
   1       0.00000000
   2       0.00000000
   3      -0.00000000
   4      -0.00000000
   5       0.00000000
   6       0.00000000
   7       0.00000000
   8      -0.00000000
   9       0.00000000
  10       0.00000000
  11      -0.00000000
  12      -0.07669327
  13       0.09872425
  14       0.00000000
  15       0.06063075
  16      -0.07804760
  17       0.00000000
  18      -0.00909968
  19       0.01171366
  20      -0.00000000
  21       0.44878989
  22      -0.57770970
  23      -0.00000000
  24      -0.00000000
  25      -0.00000000
  26      -0.02068471
  27       0.02662662
  28      -0.00000000
  29       0.00000000
  30      -0.00000000
  31      -0.00000000
  32       0.02860897
  33      -0.03682721
  34       0.00000000
  35       0.00000000
  36      -0.00000000
  37      -0.00000000
  38      -0.00000000
  39       0.00000000
  40      -0.00000000
  41       0.00000000
  42      -0.00000000
  43       0.00000000
  44      -0.00000000
  45       0.00000000
  46       0.07669327
  47      -0.09872425
  48       0.00000000
  49      -0.06063075
  50       0.07804760
  51      -0.00000000
  52       0.00909968
  53      -0.01171366
  54       0.00000000
  55      -0.44878989
  56       0.57770970
  57      -0.00000000
  58      -0.00000000
  59      -0.00000000
  60      -0.02068471
  61       0.02662662
  62      -0.00000000
  63      -0.00000000
  64      -0.00000000
  65      -0.00000000
  66       0.02860897
  67      -0.03682721
  68      -0.00000000
Ene=     1.71397E-02
Spin= Alpha
Occup=   0.0000000000
   1       0.00000000
   2       0.00000000
   3      -0.00000000
   4       0.00000000
   5      -0.00000000
   6       0.00000000
   7      -0.00000000
   8       0.00000000
   9      -0.00000000
  10      -0.00000000
  11      -0.00000000
  12       0.04267998
  13      -0.06478718
  14       0.00000000
  15      -0.12622766
  16       0.19161054
  17      -0.00000000
  18       0.52753438
  19      -0.80078448
  20       0.00000000
  21      -0.53057002
  22       0.80539251
  23      -0.00000000
  24       0.00000000
  25      -0.00000000
  26      -0.03071603
  27       0.04662619
  28      -0.00000000
  29       0.00000000
  30      -0.00000000
  31      -0.00000000
  32       0.06316434
  33      -0.09588194
  34       0.00000000
  35       0.00000000
  36      -0.00000000
  37       0.00000000
  38      -0.00000000
  39       0.00000000
  40      -0.00000000
  41       0.00000000
  42      -0.00000000
  43      -0.00000000
  44       0.00000000
  45       0.00000000
  46       0.04267998
  47      -0.06478718
  48       0.00000000
  49      -0.12622766
  50       0.19161054
  51      -0.00000000
  52       0.52753438
  53      -0.80078448
  54       0.00000000
  55      -0.53057002
  56       0.80539251
  57      -0.00000000
  58      -0.00000000
  59      -0.00000000
  60       0.03071603
  61      -0.04662619
  62       0.00000000
  63      -0.00000000
  64      -0.00000000
  65      -0.00000000
  66      -0.06316434
  67       0.09588194
  68      -0.00000000
Ene=     1.71397E-02
Spin= Alpha
Occup=   0.0000000000
   1       0.00000000
   2      -0.00000000
   3       0.00000000
   4      -0.00000000
   5       0.00000000
   6      -0.00000000
   7       0.00000000
   8      -0.00000000
   9      -0.00000000
  10       0.00000000
  11      -0.00000000
  12       0.06478718
  13       0.04267998
  14      -0.00000000
  15      -0.19161054
  16      -0.12622766
  17       0.00000000
  18       0.80078448
  19       0.52753438
  20      -0.00000000
  21      -0.80539251
  22      -0.53057002
  23      -0.00000000
  24      -0.00000000
  25      -0.00000000
  26      -0.04662619
  27      -0.03071603
  28      -0.00000000
  29      -0.00000000
  30      -0.00000000
  31      -0.00000000
  32       0.09588194
  33       0.06316434
  34      -0.00000000
  35      -0.00000000
  36       0.00000000
  37      -0.00000000
  38       0.00000000
  39      -0.00000000
  40       0.00000000
  41      -0.00000000
  42       0.00000000
  43      -0.00000000
  44       0.00000000
  45      -0.00000000
  46       0.06478718
  47       0.04267998
  48      -0.00000000
  49      -0.19161054
  50      -0.12622766
  51       0.00000000
  52       0.80078448
  53       0.52753438
  54      -0.00000000
  55      -0.80539251
  56      -0.53057002
  57       0.00000000
  58       0.00000000
  59       0.00000000
  60       0.04662619
  61       0.03071603
  62       0.00000000
  63       0.00000000
  64       0.00000000
  65       0.00000000
  66      -0.09588194
  67      -0.06316434
  68       0.00000000
Ene=     1.72755E-02
Spin= Alpha
Occup=   0.0000000000
   1       0.23401975
   2     -20.79519780
   3       2.72473338
   4      -1.51650987
   5       0.51025851
   6      -0.04862489
   7       0.04449574
   8      -0.02339395
   9       0.00047170
  10      -0.00027765
  11       0.01398423
  12       0.00000000
  13       0.00000000
  14      -9.71761884
  15      -0.00000000
  16      -0.00000000
  17       1.62574349
  18      -0.00000000
  19      -0.00000000
  20      -0.74371325
  21       0.00000000
  22       0.00000000
  23      -0.01164589
  24      -0.01285927
  25      -0.01285927
  26       0.00000000
  27       0.00000000
  28       0.00000000
  29      -2.44001383
  30      -0.12994744
  31      -0.12994744
  32      -0.00000000
  33      -0.00000000
  34      -0.00000000
  35      -0.23401975
  36      20.79519780
  37      -2.72473338
  38       1.51650987
  39      -0.51025851
  40       0.04862489
  41      -0.04449574
  42       0.02339395
  43      -0.00047170
  44       0.00027765
  45       0.01398423
  46      -0.00000000
  47      -0.00000000
  48      -9.71761884
  49       0.00000000
  50       0.00000000
  51       1.62574349
  52      -0.00000000
  53      -0.00000000
  54      -0.74371325
  55       0.00000000
  56       0.00000000
  57       0.01164589
  58       0.01285927
  59       0.01285927
  60       0.00000000
  61       0.00000000
  62      -0.00000000
  63       2.44001383
  64       0.12994744
  65       0.12994744
  66      -0.00000000
  67      -0.00000000
  68       0.00000000
Ene=     2.00757E-02
Spin= Alpha
Occup=   0.0000000000
   1       0.23814511
   2       0.03449956
   3      -0.18130285
   4       1.10276261
   5      -0.69774595
   6      -0.02309333
   7      -0.07286267
   8       0.04839685
   9       0.00167161
  10       0.00020039
  11      -0.37266302
  12       0.00000000
  13      -0.00000000
  14       0.07222308
  15       0.00000000
  16       0.00000000
  17      -0.16655429
  18      -0.00000000
  19      -0.00000000
  20      -0.31890071
  21       0.00000000
  22       0.00000000
  23      -0.16056708
  24      -0.01051986
  25      -0.01051986
  26       0.00000000
  27      -0.00000000
  28      -0.00000000
  29      -0.02558083
  30      -0.02106702
  31      -0.02106702
  32       0.00000000
  33       0.00000000
  34      -0.00000000
  35       0.23814511
  36       0.03449956
  37      -0.18130285
  38       1.10276261
  39      -0.69774595
  40      -0.02309333
  41      -0.07286267
  42       0.04839685
  43       0.00167161
  44       0.00020039
  45       0.37266302
  46      -0.00000000
  47       0.00000000
  48      -0.07222308
  49      -0.00000000
  50      -0.00000000
  51       0.16655429
  52       0.00000000
  53       0.00000000
  54       0.31890071
  55      -0.00000000
  56      -0.00000000
  57      -0.16056708
  58      -0.01051986
  59      -0.01051986
  60       0.00000000
  61      -0.00000000
  62      -0.00000000
  63      -0.02558083
  64      -0.02106702
  65      -0.02106702
  66       0.00000000
  67       0.00000000
  68       0.00000000
Ene=     2.21913E-02
Spin= Alpha
Occup=   0.0000000000
   1      -0.08482058
   2       8.57060589
   3      -2.08690436
   4       1.94629167
   5      -0.88387160
   6      -0.01047960
   7      -0.08166533
   8       0.05271600
   9       0.00153160
  10       0.00026044
  11      -0.05069687
  12      -0.00000000
  13      -0.00000000
  14       3.97819933
  15       0.00000000
  16       0.00000000
  17      -1.00965886
  18      -0.00000000
  19       0.00000000
  20      -0.30651559
  21       0.00000000
  22      -0.00000000
  23      -0.02725721
  24      -0.03660540
  25      -0.03660540
  26      -0.00000000
  27      -0.00000000
  28      -0.00000000
  29       0.91876507
  30       0.00242011
  31       0.00242011
  32       0.00000000
  33       0.00000000
  34       0.00000000
  35       0.08482058
  36      -8.57060589
  37       2.08690436
  38      -1.94629167
  39       0.88387160
  40       0.01047960
  41       0.08166533
  42      -0.05271600
  43      -0.00153160
  44      -0.00026044
  45      -0.05069687
  46       0.00000000
  47       0.00000000
  48       3.97819933
  49      -0.00000000
  50      -0.00000000
  51      -1.00965886
  52       0.00000000
  53      -0.00000000
  54      -0.30651559
  55      -0.00000000
  56       0.00000000
  57       0.02725721
  58       0.03660540
  59       0.03660540
  60      -0.00000000
  61      -0.00000000
  62       0.00000000
  63      -0.91876507
  64      -0.00242011
  65      -0.00242011
  66       0.00000000
  67       0.00000000
  68      -0.00000000
Ene=     2.35956E-02
Spin= Alpha
Occup=   0.0000000000
   1       0.00000000
   2       0.00000000
   3       0.00000000
   4      -0.00000000
   5       0.00000000
   6       0.00000000
   7       0.00000000
   8      -0.00000000
   9      -0.00000000
  10       0.00000000
  11      -0.00000000
  12      -3.19646412
  13      -1.35316035
  14       0.00000000
  15       0.78157206
  16       0.33086319
  17      -0.00000000
  18      -1.42464727
  19      -0.60309646
  20       0.00000000
  21       0.73855927
  22       0.31265457
  23      -0.00000000
  24       0.00000000
  25       0.00000000
  26      -0.72567784
  27      -0.30720147
  28       0.00000000
  29       0.00000000
  30       0.00000000
  31       0.00000000
  32       0.10829084
  33       0.04584280
  34      -0.00000000
  35      -0.00000000
  36      -0.00000000
  37      -0.00000000
  38       0.00000000
  39      -0.00000000
  40       0.00000000
  41      -0.00000000
  42       0.00000000
  43      -0.00000000
  44       0.00000000
  45       0.00000000
  46       3.19646412
  47       1.35316035
  48       0.00000000
  49      -0.78157206
  50      -0.33086319
  51      -0.00000000
  52       1.42464727
  53       0.60309646
  54       0.00000000
  55      -0.73855927
  56      -0.31265457
  57      -0.00000000
  58      -0.00000000
  59      -0.00000000
  60      -0.72567784
  61      -0.30720147
  62      -0.00000000
  63      -0.00000000
  64      -0.00000000
  65      -0.00000000
  66       0.10829084
  67       0.04584280
  68       0.00000000
Ene=     2.35956E-02
Spin= Alpha
Occup=   0.0000000000
   1      -0.00000000
   2      -0.00000000
   3      -0.00000000
   4       0.00000000
   5      -0.00000000
   6       0.00000000
   7      -0.00000000
   8       0.00000000
   9      -0.00000000
  10       0.00000000
  11       0.00000000
  12       1.35316035
  13      -3.19646412
  14      -0.00000000
  15      -0.33086319
  16       0.78157206
  17       0.00000000
  18       0.60309646
  19      -1.42464727
  20      -0.00000000
  21      -0.31265457
  22       0.73855927
  23       0.00000000
  24      -0.00000000
  25      -0.00000000
  26       0.30720147
  27      -0.72567784
  28      -0.00000000
  29      -0.00000000
  30      -0.00000000
  31      -0.00000000
  32      -0.04584280
  33       0.10829084
  34       0.00000000
  35       0.00000000
  36       0.00000000
  37      -0.00000000
  38      -0.00000000
  39       0.00000000
  40       0.00000000
  41      -0.00000000
  42       0.00000000
  43      -0.00000000
  44       0.00000000
  45      -0.00000000
  46      -1.35316035
  47       3.19646412
  48      -0.00000000
  49       0.33086319
  50      -0.78157206
  51       0.00000000
  52      -0.60309646
  53       1.42464727
  54      -0.00000000
  55       0.31265457
  56      -0.73855927
  57       0.00000000
  58       0.00000000
  59       0.00000000
  60       0.30720147
  61      -0.72567784
  62       0.00000000
  63       0.00000000
  64       0.00000000
  65       0.00000000
  66      -0.04584280
  67       0.10829084
  68      -0.00000000
Ene=     2.95881E-02
Spin= Alpha
Occup=   0.0000000000
   1      -0.85188139
   2       0.90999364
   3      -1.59195545
   4       1.28192006
   5      -0.46721190
   6      -0.02653591
   7      -0.03430713
   8       0.02415970
   9       0.00113494
  10       0.00006052
  11       2.35835722
  12       0.00000000
  13      -0.00000000
  14      -0.66062633
  15      -0.00000000
  16       0.00000000
  17       1.06774303
  18       0.00000000
  19      -0.00000000
  20      -0.65975935
  21       0.00000000
  22      -0.00000000
  23       0.95435265
  24      -0.03725490
  25      -0.03725490
  26       0.00000000
  27      -0.00000000
  28      -0.00000000
  29      -0.42221812
  30      -0.20969182
  31      -0.20969182
  32      -0.00000000
  33       0.00000000
  34       0.00000000
  35      -0.85188139
  36       0.90999364
  37      -1.59195545
  38       1.28192006
  39      -0.46721190
  40      -0.02653591
  41      -0.03430713
  42       0.02415970
  43       0.00113494
  44       0.00006052
  45      -2.35835722
  46      -0.00000000
  47       0.00000000
  48       0.66062633
  49       0.00000000
  50      -0.00000000
  51      -1.06774303
  52      -0.00000000
  53       0.00000000
  54       0.65975935
  55      -0.00000000
  56       0.00000000
  57       0.95435265
  58      -0.03725490
  59      -0.03725490
  60       0.00000000
  61      -0.00000000
  62       0.00000000
  63      -0.42221812
  64      -0.20969182
  65      -0.20969182
  66      -0.00000000
  67       0.00000000
  68      -0.00000000
Ene=     3.07992E-02
Spin= Alpha
Occup=   0.0000000000
   1      -5.54322134
   2      -2.45513424
   3       4.78408132
   4      -2.10116464
   5       0.52234913
   6       0.08475943
   7       0.02959162
   8      -0.02707160
   9      -0.00247663
  10       0.00010159
  11       3.72959662
  12      -0.00000000
  13       0.00000000
  14      -1.69347289
  15       0.00000000
  16       0.00000000
  17       0.58401932
  18      -0.00000000
  19      -0.00000000
  20      -0.38544650
  21       0.00000000
  22       0.00000000
  23       2.15924202
  24       0.56156933
  25       0.56156933
  26      -0.00000000
  27       0.00000000
  28       0.00000000
  29       0.83249546
  30       1.71632578
  31       1.71632578
  32       0.00000000
  33       0.00000000
  34       0.00000000
  35      -5.54322134
  36      -2.45513424
  37       4.78408132
  38      -2.10116464
  39       0.52234913
  40       0.08475943
  41       0.02959162
  42      -0.02707160
  43      -0.00247663
  44       0.00010159
  45      -3.72959662
  46       0.00000000
  47      -0.00000000
  48       1.69347289
  49      -0.00000000
  50      -0.00000000
  51      -0.58401932
  52       0.00000000
  53       0.00000000
  54       0.38544650
  55      -0.00000000
  56       0.00000000
  57       2.15924202
  58       0.56156933
  59       0.56156933
  60      -0.00000000
  61       0.00000000
  62      -0.00000000
  63       0.83249546
  64       1.71632578
  65       1.71632578
  66       0.00000000
  67       0.00000000
  68       0.00000000
Ene=     3.09021E-02
Spin= Alpha
Occup=   0.0000000000
   1      -0.32189309
   2      22.35594269
   3       0.13873818
   4      -0.74691988
   5       0.31086326
   6       0.00061126
   7       0.02329023
   8      -0.01462538
   9      -0.00034471
  10      -0.00008516
  11       0.23733534
  12      -0.00000000