[Molden Format]
[Title]
 Molden2AIM, Version 3.1.0 (02/25/2015)           Time: Thu Oct 17 19:52:01 2024

[Atoms] AU
E+       1       4     0.00000000     0.00000000     0.00000000
E+       2       4     2.20000000     0.00000000     0.00000000
[GTO]
    1 0
 S   1 1.0
    0.1000000000D-03      0.1000000000D+01
 S   1 1.0
    0.3000000000D-03      0.1000000000D+01
 S   1 1.0
    0.9000000000D-03      0.1000000000D+01
 S   1 1.0
    0.2700000000D-02      0.1000000000D+01
 S   1 1.0
    0.8100000000D-02      0.1000000000D+01
 S   1 1.0
    0.2430000000D-01      0.1000000000D+01
 S   1 1.0
    0.7290000000D-01      0.1000000000D+01
 S   1 1.0
    0.2187000000D+00      0.1000000000D+01
 S   1 1.0
    0.6561000000D+00      0.1000000000D+01
 S   1 1.0
    0.1968300000D+01      0.1000000000D+01
 P   1 1.0
    0.1000000000D-03      0.1000000000D+01
 P   1 1.0
    0.3000000000D-03      0.1000000000D+01
 P   1 1.0
    0.9000000000D-03      0.1000000000D+01
 P   1 1.0
    0.2700000000D-02      0.1000000000D+01
 D   1 1.0
    0.1000000000D-03      0.1000000000D+01
 D   1 1.0
    0.3000000000D-03      0.1000000000D+01

    2 0
 S   1 1.0
    0.1000000000D-03      0.1000000000D+01
 S   1 1.0
    0.3000000000D-03      0.1000000000D+01
 S   1 1.0
    0.9000000000D-03      0.1000000000D+01
 S   1 1.0
    0.2700000000D-02      0.1000000000D+01
 S   1 1.0
    0.8100000000D-02      0.1000000000D+01
 S   1 1.0
    0.2430000000D-01      0.1000000000D+01
 S   1 1.0
    0.7290000000D-01      0.1000000000D+01
 S   1 1.0
    0.2187000000D+00      0.1000000000D+01
 S   1 1.0
    0.6561000000D+00      0.1000000000D+01
 S   1 1.0
    0.1968300000D+01      0.1000000000D+01
 P   1 1.0
    0.1000000000D-03      0.1000000000D+01
 P   1 1.0
    0.3000000000D-03      0.1000000000D+01
 P   1 1.0
    0.9000000000D-03      0.1000000000D+01
 P   1 1.0
    0.2700000000D-02      0.1000000000D+01
 D   1 1.0
    0.1000000000D-03      0.1000000000D+01
 D   1 1.0
    0.3000000000D-03      0.1000000000D+01


[MO]
 Ene=         -0.02734550
 Spin= Alpha
 Occup=        1.00000000
    1       -0.0081747400
    2       -0.0078219600
    3        0.0138958400
    4       -0.0068958500
    5        0.1426598300
    6        0.2650718200
    7        0.2600000800
    8       -0.1909303800
    9       -0.0134946500
   10       -0.0005091000
   11       -0.0002021100
   12        0.0000000000
   13       -0.0000000000
   14       -0.0004278800
   15       -0.0000000000
   16        0.0000000000
   17       -0.0015748400
   18       -0.0000000000
   19        0.0000000000
   20        0.0110932900
   21        0.0000000000
   22       -0.0000000000
   23        0.0011785400
   24        0.0012038200
   25        0.0012038200
   26        0.0000000000
   27        0.0000000000
   28        0.0000000000
   29        0.0039114000
   30        0.0038882100
   31        0.0038882100
   32       -0.0000000000
   33       -0.0000000000
   34       -0.0000000000
   35       -0.0081747400
   36       -0.0078219600
   37        0.0138958400
   38       -0.0068958500
   39        0.1426598300
   40        0.2650718200
   41        0.2600000800
   42       -0.1909303800
   43       -0.0134946500
   44       -0.0005091000
   45        0.0002021100
   46       -0.0000000000
   47       -0.0000000000
   48        0.0004278800
   49       -0.0000000000
   50       -0.0000000000
   51        0.0015748400
   52        0.0000000000
   53       -0.0000000000
   54       -0.0110932900
   55       -0.0000000000
   56        0.0000000000
   57        0.0011785400
   58        0.0012038200
   59        0.0012038200
   60       -0.0000000000
   61       -0.0000000000
   62       -0.0000000000
   63        0.0039114000
   64        0.0038882100
   65        0.0038882100
   66        0.0000000000
   67        0.0000000000
   68        0.0000000000
 Ene=          0.00206090
 Spin= Alpha
 Occup=        0.00000000
    1        0.1208551500
    2        0.3095648900
    3       -1.0669178800
    4        0.4599645700
    5       -0.0720768300
    6        0.0774213100
    7        0.0112531100
    8       -0.0142183000
    9       -0.0028532600
   10        0.0001997900
   11        0.0029903600
   12       -0.0000000000
   13        0.0000000000
   14        0.0145507500
   15       -0.0000000000
   16       -0.0000000000
   17        0.4376015100
   18       -0.0000000000
   19       -0.0000000000
   20       -0.3201729400
   21        0.0000000000
   22       -0.0000000000
   23       -0.0182093200
   24       -0.0153463100
   25       -0.0153463100
   26       -0.0000000000
   27       -0.0000000000
   28       -0.0000000000
   29       -0.0801470400
   30       -0.0886503400
   31       -0.0886503400
   32        0.0000000000
   33       -0.0000000000
   34        0.0000000000
   35        0.1208551500
   36        0.3095648900
   37       -1.0669178800
   38        0.4599645700
   39       -0.0720768300
   40        0.0774213100
   41        0.0112531100
   42       -0.0142183000
   43       -0.0028532600
   44        0.0001997900
   45       -0.0029903600
   46        0.0000000000
   47       -0.0000000000
   48       -0.0145507500
   49        0.0000000000
   50        0.0000000000
   51       -0.4376015100
   52        0.0000000000
   53        0.0000000000
   54        0.3201729400
   55       -0.0000000000
   56        0.0000000000
   57       -0.0182093200
   58       -0.0153463100
   59       -0.0153463100
   60        0.0000000000
   61        0.0000000000
   62        0.0000000000
   63       -0.0801470400
   64       -0.0886503400
   65       -0.0886503400
   66       -0.0000000000
   67        0.0000000000
   68       -0.0000000000
 Ene=          0.00291753
 Spin= Alpha
 Occup=        0.00000000
    1       -0.0022022300
    2       -0.0041783800
    3        0.0439914300
    4       -0.0601056300
    5        0.7216896800
    6        0.0260401300
    7        0.0701263300
    8       -0.0173799400
    9        0.0003158400
   10       -0.0001522600
   11        0.1807176500
   12       -0.0000000000
   13        0.0000000000
   14        0.1542687500
   15       -0.0000000000
   16       -0.0000000000
   17       -0.7929727200
   18       -0.0000000000
   19       -0.0000000000
   20        0.1134667800
   21        0.0000000000
   22        0.0000000000
   23        3.0661453000
   24        3.0563251800
   25        3.0563251800
   26       -0.0000000000
   27        0.0000000000
   28       -0.0000000000
   29        5.9048592900
   30        5.9152907100
   31        5.9152907100
   32       -0.0000000000
   33       -0.0000000000
   34        0.0000000000
   35        0.0022022300
   36        0.0041783800
   37       -0.0439914300
   38        0.0601056300
   39       -0.7216896800
   40       -0.0260401300
   41       -0.0701263300
   42        0.0173799400
   43       -0.0003158400
   44        0.0001522600
   45        0.1807176500
   46        0.0000000000
   47       -0.0000000000
   48        0.1542687500
   49        0.0000000000
   50        0.0000000000
   51       -0.7929727200
   52        0.0000000000
   53        0.0000000000
   54        0.1134667800
   55       -0.0000000000
   56       -0.0000000000
   57       -3.0661453000
   58       -3.0563251800
   59       -3.0563251800
   60       -0.0000000000
   61        0.0000000000
   62        0.0000000000
   63       -5.9048592900
   64       -5.9152907100
   65       -5.9152907100
   66       -0.0000000000
   67       -0.0000000000
   68       -0.0000000000
 Ene=          0.00339255
 Spin= Alpha
 Occup=        0.00000000
    1       -0.0000000000
    2       -0.0000000000
    3        0.0000000000
    4        0.0000000000
    5       -0.0000000000
    6       -0.0000000000
    7       -0.0000000000
    8        0.0000000000
    9       -0.0000000000
   10        0.0000000000
   11       -0.0000000000
   12       -0.0186717900
   13        0.0180356200
   14       -0.0000000000
   15        0.0842962300
   16       -0.0814241400
   17       -0.0000000000
   18       -0.4119781400
   19        0.3979414500
   20        0.0000000000
   21       -0.0029265100
   22        0.0028268000
   23        0.0000000000
   24        0.0000000000
   25        0.0000000000
   26       -0.5595094800
   27        0.5404461900
   28        0.0000000000
   29        0.0000000000
   30        0.0000000000
   31        0.0000000000
   32        0.3459387400
   33       -0.3341521100
   34       -0.0000000000
   35        0.0000000000
   36        0.0000000000
   37       -0.0000000000
   38       -0.0000000000
   39        0.0000000000
   40        0.0000000000
   41        0.0000000000
   42       -0.0000000000
   43       -0.0000000000
   44        0.0000000000
   45        0.0000000000
   46       -0.0186717900
   47        0.0180356200
   48        0.0000000000
   49        0.0842962300
   50       -0.0814241400
   51        0.0000000000
   52       -0.4119781400
   53        0.3979414500
   54        0.0000000000
   55       -0.0029265100
   56        0.0028268000
   57       -0.0000000000
   58       -0.0000000000
   59       -0.0000000000
   60        0.5595094800
   61       -0.5404461900
   62       -0.0000000000
   63       -0.0000000000
   64       -0.0000000000
   65       -0.0000000000
   66       -0.3459387400
   67        0.3341521100
   68        0.0000000000
 Ene=          0.00339255
 Spin= Alpha
 Occup=        0.00000000
    1        0.0000000000
    2       -0.0000000000
    3       -0.0000000000
    4        0.0000000000
    5       -0.0000000000
    6        0.0000000000
    7        0.0000000000
    8       -0.0000000000
    9        0.0000000000
   10       -0.0000000000
   11       -0.0000000000
   12        0.0180356200
   13        0.0186717900
   14        0.0000000000
   15       -0.0814241400
   16       -0.0842962300
   17        0.0000000000
   18        0.3979414500
   19        0.4119781400
   20        0.0000000000
   21        0.0028268000
   22        0.0029265100
   23        0.0000000000
   24        0.0000000000
   25        0.0000000000
   26        0.5404461900
   27        0.5595094800
   28        0.0000000000
   29        0.0000000000
   30        0.0000000000
   31        0.0000000000
   32       -0.3341521100
   33       -0.3459387400
   34       -0.0000000000
   35       -0.0000000000
   36        0.0000000000
   37        0.0000000000
   38       -0.0000000000
   39        0.0000000000
   40       -0.0000000000
   41        0.0000000000
   42       -0.0000000000
   43       -0.0000000000
   44        0.0000000000
   45        0.0000000000
   46        0.0180356200
   47        0.0186717900
   48       -0.0000000000
   49       -0.0814241400
   50       -0.0842962300
   51       -0.0000000000
   52        0.3979414500
   53        0.4119781400
   54       -0.0000000000
   55        0.0028268000
   56        0.0029265100
   57       -0.0000000000
   58       -0.0000000000
   59       -0.0000000000
   60       -0.5404461900
   61       -0.5595094800
   62       -0.0000000000
   63       -0.0000000000
   64       -0.0000000000
   65       -0.0000000000
   66        0.3341521100
   67        0.3459387400
   68        0.0000000000
 Ene=          0.00655936
 Spin= Alpha
 Occup=        0.00000000
    1        0.0000000000
    2        0.0000000000
    3       -0.0000000000
    4       -0.0000000000
    5        0.0000000000
    6       -0.0000000000
    7       -0.0000000000
    8        0.0000000000
    9        0.0000000000
   10       -0.0000000000
   11        0.0000000000
   12       -0.0002554000
   13       -0.0000518800
   14        0.0000000000
   15        0.0006749700
   16        0.0001371100
   17        0.0000000000
   18      -13.8571187900
   19       -2.8148599700
   20        0.0000000000
   21       -2.0943001200
   22       -0.4254247700
   23        0.0000000000
   24        0.0000000000
   25        0.0000000000
   26        0.0358436600
   27        0.0072810900
   28       -0.0000000000
   29        0.0000000000
   30        0.0000000000
   31        0.0000000000
   32       -0.1060598400
   33       -0.0215444200
   34       -0.0000000000
   35        0.0000000000
   36        0.0000000000
   37       -0.0000000000
   38        0.0000000000
   39       -0.0000000000
   40        0.0000000000
   41        0.0000000000
   42       -0.0000000000
   43       -0.0000000000
   44        0.0000000000
   45       -0.0000000000
   46        0.0002554000
   47        0.0000518800
   48       -0.0000000000
   49       -0.0006749700
   50       -0.0001371100
   51       -0.0000000000
   52       13.8571187900
   53        2.8148599700
   54       -0.0000000000
   55        2.0943001200
   56        0.4254247700
   57       -0.0000000000
   58       -0.0000000000
   59       -0.0000000000
   60        0.0358436600
   61        0.0072810900
   62        0.0000000000
   63       -0.0000000000
   64       -0.0000000000
   65       -0.0000000000
   66       -0.1060598400
   67       -0.0215444200
   68        0.0000000000
 Ene=          0.00655936
 Spin= Alpha
 Occup=        0.00000000
    1        0.0000000000
    2       -0.0000000000
    3       -0.0000000000
    4        0.0000000000
    5       -0.0000000000
    6       -0.0000000000
    7        0.0000000000
    8       -0.0000000000
    9        0.0000000000
   10        0.0000000000
   11       -0.0000000000
   12        0.0000518800
   13       -0.0002554000
   14        0.0000000000
   15       -0.0001371100
   16        0.0006749700
   17        0.0000000000
   18        2.8148599700
   19      -13.8571187900
   20        0.0000000000
   21        0.4254247700
   22       -2.0943001200
   23       -0.0000000000
   24       -0.0000000000
   25       -0.0000000000
   26       -0.0072810900
   27        0.0358436600
   28       -0.0000000000
   29       -0.0000000000
   30       -0.0000000000
   31       -0.0000000000
   32        0.0215444200
   33       -0.1060598400
   34       -0.0000000000
   35        0.0000000000
   36        0.0000000000
   37       -0.0000000000
   38       -0.0000000000
   39       -0.0000000000
   40        0.0000000000
   41        0.0000000000
   42       -0.0000000000
   43       -0.0000000000
   44        0.0000000000
   45        0.0000000000
   46       -0.0000518800
   47        0.0002554000
   48       -0.0000000000
   49        0.0001371100
   50       -0.0006749700
   51       -0.0000000000
   52       -2.8148599700
   53       13.8571187900
   54       -0.0000000000
   55       -0.4254247700
   56        2.0943001200
   57        0.0000000000
   58        0.0000000000
   59        0.0000000000
   60       -0.0072810900
   61        0.0358436600
   62        0.0000000000
   63        0.0000000000
   64        0.0000000000
   65        0.0000000000
   66        0.0215444200
   67       -0.1060598400
   68        0.0000000000
 Ene=          0.00659749
 Spin= Alpha
 Occup=        0.00000000
    1       -0.2741655300
    2       -0.5846643600
    3        0.5655186000
    4        0.4226328400
    5        0.0210508400
    6       -0.0016961700
    7        0.0005290100
    8       -0.0002497700
    9       -0.0000258100
   10       -0.0000052900
   11       -0.0071950800
   12       -0.0000000000
   13       -0.0000000000
   14       -0.0267623400
   15        0.0000000000
   16        0.0000000000
   17      -12.0067682200
   18       -0.0000000000
   19       -0.0000000000
   20       -1.9799005600
   21       -0.0000000000
   22       -0.0000000000
   23        0.0740434200
   24        0.0208628000
   25        0.0208628000
   26       -0.0000000000
   27        0.0000000000
   28       -0.0000000000
   29        0.0671977700
   30        0.2261769200
   31        0.2261769200
   32        0.0000000000
   33       -0.0000000000
   34        0.0000000000
   35       -0.2741655300
   36       -0.5846643600
   37        0.5655186000
   38        0.4226328400
   39        0.0210508400
   40       -0.0016961700
   41        0.0005290100
   42       -0.0002497700
   43       -0.0000258100
   44       -0.0000052900
   45        0.0071950800
   46        0.0000000000
   47        0.0000000000
   48        0.0267623400
   49       -0.0000000000
   50       -0.0000000000
   51       12.0067682200
   52        0.0000000000
   53        0.0000000000
   54        1.9799005600
   55        0.0000000000
   56        0.0000000000
   57        0.0740434200
   58        0.0208628000
   59        0.0208628000
   60        0.0000000000
   61       -0.0000000000
   62        0.0000000000
   63        0.0671977700
   64        0.2261769200
   65        0.2261769200
   66       -0.0000000000
   67       -0.0000000000
   68       -0.0000000000
 Ene=          0.00741838
 Spin= Alpha
 Occup=        0.00000000
    1       -0.0017526000
    2       -0.0036415800
    3        0.0391908600
    4       -0.0847889800
    5       -0.0186917200
    6       -0.4941552400
    7       -0.1521677400
    8        0.0409367400
    9        0.0023420000
   10       -0.0001232300
   11        0.1438513500
   12       -0.0000000000
   13        0.0000000000
   14        0.1380071300
   15       -0.0000000000
   16       -0.0000000000
   17       -0.7468145000
   18        0.0000000000
   19        0.0000000000
   20        0.7095830900
   21        0.0000000000
   22        0.0000000000
   23        2.4353442600
   24        2.4257305700
   25        2.4257305700
   26       -0.0000000000
   27        0.0000000000
   28       -0.0000000000
   29        4.8230640000
   30        4.8334676400
   31        4.8334676400
   32       -0.0000000000
   33       -0.0000000000
   34        0.0000000000
   35        0.0017526000
   36        0.0036415800
   37       -0.0391908600
   38        0.0847889800
   39        0.0186917200
   40        0.4941552400
   41        0.1521677400
   42       -0.0409367400
   43       -0.0023420000
   44        0.0001232300
   45        0.1438513500
   46        0.0000000000
   47       -0.0000000000
   48        0.1380071300
   49        0.0000000000
   50        0.0000000000
   51       -0.7468145000
   52       -0.0000000000
   53       -0.0000000000
   54        0.7095830900
   55       -0.0000000000
   56       -0.0000000000
   57       -2.4353442600
   58       -2.4257305700
   59       -2.4257305700
   60       -0.0000000000
   61        0.0000000000
   62        0.0000000000
   63       -4.8230640000
   64       -4.8334676400
   65       -4.8334676400
   66       -0.0000000000
   67       -0.0000000000
   68       -0.0000000000
 Ene=          0.00823735
 Spin= Alpha
 Occup=        0.00000000
    1        0.0775472900
    2       -0.1478888700
    3        0.8950542800
    4       -1.4625350600
    5        0.6075088000
    6       -0.0450569400
    7        0.1049140800
    8       -0.0591862500
    9        0.0000325100
   10       -0.0007043900
   11        0.0018906600
   12       -0.0000000000
   13       -0.0000000000
   14       -0.0052798400
   15        0.0000000000
   16        0.0000000000
   17       -1.4129335300
   18       -0.0000000000
   19        0.0000000000
   20        1.0597258600
   21        0.0000000000
   22        0.0000000000
   23       -0.0077870000
   24       -0.0158137600
   25       -0.0158137600
   26       -0.0000000000
   27        0.0000000000
   28       -0.0000000000
   29       -0.0197204900
   30        0.0027080500
   31        0.0027080500
   32        0.0000000000
   33       -0.0000000000
   34       -0.0000000000
   35        0.0775472900
   36       -0.1478888700
   37        0.8950542800
   38       -1.4625350600
   39        0.6075088000
   40       -0.0450569400
   41        0.1049140800
   42       -0.0591862500
   43        0.0000325100
   44       -0.0007043900
   45       -0.0018906600
   46        0.0000000000
   47        0.0000000000
   48        0.0052798400
   49       -0.0000000000
   50       -0.0000000000
   51        1.4129335300
   52        0.0000000000
   53       -0.0000000000
   54       -1.0597258600
   55       -0.0000000000
   56       -0.0000000000
   57       -0.0077870000
   58       -0.0158137600
   59       -0.0158137600
   60        0.0000000000
   61       -0.0000000000
   62        0.0000000000
   63       -0.0197204900
   64        0.0027080500
   65        0.0027080500
   66       -0.0000000000
   67        0.0000000000
   68        0.0000000000
 Ene=          0.00867431
 Spin= Alpha
 Occup=        0.00000000
    1        0.0000000000
    2        0.0000000000
    3       -0.0000000000
    4       -0.0000000000
    5        0.0000000000
    6       -0.0000000000
    7       -0.0000000000
    8        0.0000000000
    9       -0.0000000000
   10        0.0000000000
   11        0.0000000000
   12        0.0234531800
   13        0.0009564200
   14        0.0000000000
   15       -0.1080231900
   16       -0.0044051800
   17        0.0000000000
   18        0.6125275500
   19        0.0249788300
   20       -0.0000000000
   21       -0.7336533100
   22       -0.0299183300
   23        0.0000000000
   24        0.0000000000
   25        0.0000000000
   26        0.6704424500
   27        0.0273406000
   28       -0.0000000000
   29        0.0000000000
   30        0.0000000000
   31        0.0000000000
   32       -0.4098441900
   33       -0.0167134200
   34       -0.0000000000
   35       -0.0000000000
   36       -0.0000000000
   37        0.0000000000
   38        0.0000000000
   39       -0.0000000000
   40        0.0000000000
   41       -0.0000000000
   42        0.0000000000
   43       -0.0000000000
   44       -0.0000000000
   45       -0.0000000000
   46        0.0234531800
   47        0.0009564200
   48       -0.0000000000
   49       -0.1080231900
   50       -0.0044051800
   51       -0.0000000000
   52        0.6125275500
   53        0.0249788300
   54        0.0000000000
   55       -0.7336533100
   56       -0.0299183300
   57       -0.0000000000
   58       -0.0000000000
   59       -0.0000000000
   60       -0.6704424500
   61       -0.0273406000
   62        0.0000000000
   63       -0.0000000000
   64       -0.0000000000
   65       -0.0000000000
   66        0.4098441900
   67        0.0167134200
   68        0.0000000000
 Ene=          0.00867431
 Spin= Alpha
 Occup=        0.00000000
    1       -0.0000000000
    2        0.0000000000
    3        0.0000000000
    4       -0.0000000000
    5        0.0000000000
    6       -0.0000000000
    7        0.0000000000
    8       -0.0000000000
    9       -0.0000000000
   10        0.0000000000
   11        0.0000000000
   12        0.0009564200
   13       -0.0234531800
   14        0.0000000000
   15       -0.0044051800
   16        0.1080231900
   17       -0.0000000000
   18        0.0249788300
   19       -0.6125275500
   20       -0.0000000000
   21       -0.0299183300
   22        0.7336533100
   23       -0.0000000000
   24       -0.0000000000
   25       -0.0000000000
   26        0.0273406000
   27       -0.6704424500
   28       -0.0000000000
   29       -0.0000000000
   30       -0.0000000000
   31       -0.0000000000
   32       -0.0167134200
   33        0.4098441900
   34        0.0000000000
   35        0.0000000000
   36       -0.0000000000
   37       -0.0000000000
   38        0.0000000000
   39        0.0000000000
   40       -0.0000000000
   41        0.0000000000
   42       -0.0000000000
   43       -0.0000000000
   44       -0.0000000000
   45       -0.0000000000
   46        0.0009564200
   47       -0.0234531800
   48       -0.0000000000
   49       -0.0044051800
   50        0.1080231900
   51        0.0000000000
   52        0.0249788300
   53       -0.6125275500
   54        0.0000000000
   55       -0.0299183300
   56        0.7336533100
   57        0.0000000000
   58        0.0000000000
   59        0.0000000000
   60       -0.0273406000
   61        0.6704424500
   62        0.0000000000
   63        0.0000000000
   64        0.0000000000
   65        0.0000000000
   66        0.0167134200
   67       -0.4098441900
   68       -0.0000000000
 Ene=          0.01443880
 Spin= Alpha
 Occup=        0.00000000
    1       -0.0000000000
    2       -0.0000000000
    3        0.0000000000
    4       -0.0000000000
    5        0.0000000000
    6        0.0000000000
    7       -0.0000000000
    8        0.0000000000
    9       -0.0000000000
   10        0.0000000000
   11        0.0000000000
   12       -0.0001759100
   13       -0.0000671900
   14        0.0000000000
   15        0.0001454900
   16        0.0000555800
   17       -0.0000000000
   18      -15.7229282800
   19       -6.0058677000
   20        0.0000000000
   21       10.4041063500
   22        3.9741761300
   23        0.0000000000
   24        0.0000000000
   25        0.0000000000
   26        0.0326017600
   27        0.0124532700
   28        0.0000000000
   29        0.0000000000
   30        0.0000000000
   31        0.0000000000
   32       -0.0985919000
   33       -0.0376602800
   34       -0.0000000000
   35       -0.0000000000
   36       -0.0000000000
   37        0.0000000000
   38        0.0000000000
   39       -0.0000000000
   40        0.0000000000
   41       -0.0000000000
   42        0.0000000000
   43       -0.0000000000
   44        0.0000000000
   45       -0.0000000000
   46        0.0001759100
   47        0.0000671900
   48       -0.0000000000
   49       -0.0001454900
   50       -0.0000555800
   51        0.0000000000
   52       15.7229282800
   53        6.0058677000
   54       -0.0000000000
   55      -10.4041063500
   56       -3.9741761300
   57       -0.0000000000
   58       -0.0000000000
   59       -0.0000000000
   60        0.0326017600
   61        0.0124532700
   62       -0.0000000000
   63       -0.0000000000
   64       -0.0000000000
   65       -0.0000000000
   66       -0.0985919000
   67       -0.0376602800
   68        0.0000000000
 Ene=          0.01443880
 Spin= Alpha
 Occup=        0.00000000
    1        0.0000000000
    2        0.0000000000
    3        0.0000000000
    4       -0.0000000000
    5       -0.0000000000
    6        0.0000000000
    7       -0.0000000000
    8        0.0000000000
    9       -0.0000000000
   10        0.0000000000
   11        0.0000000000
   12       -0.0000671900
   13        0.0001759100
   14        0.0000000000
   15        0.0000555800
   16       -0.0001454900
   17       -0.0000000000
   18       -6.0058677000
   19       15.7229282800
   20        0.0000000000
   21        3.9741761300
   22      -10.4041063500
   23        0.0000000000
   24        0.0000000000
   25        0.0000000000
   26        0.0124532700
   27       -0.0326017600
   28        0.0000000000
   29        0.0000000000
   30        0.0000000000
   31        0.0000000000
   32       -0.0376602800
   33        0.0985919000
   34        0.0000000000
   35       -0.0000000000
   36       -0.0000000000
   37        0.0000000000
   38        0.0000000000
   39       -0.0000000000
   40        0.0000000000
   41       -0.0000000000
   42        0.0000000000
   43       -0.0000000000
   44        0.0000000000
   45       -0.0000000000
   46        0.0000671900
   47       -0.0001759100
   48       -0.0000000000
   49       -0.0000555800
   50        0.0001454900
   51        0.0000000000
   52        6.0058677000
   53      -15.7229282800
   54       -0.0000000000
   55       -3.9741761300
   56       10.4041063500
   57       -0.0000000000
   58       -0.0000000000
   59       -0.0000000000
   60        0.0124532700
   61       -0.0326017600
   62       -0.0000000000
   63       -0.0000000000
   64       -0.0000000000
   65       -0.0000000000
   66       -0.0376602800
   67        0.0985919000
   68       -0.0000000000
 Ene=          0.01489870
 Spin= Alpha
 Occup=        0.00000000
    1        0.5005962300
    2        0.8958289400
    3       -1.3058714400
    4        0.0808889400
    5        0.5590883200
    6       -0.0898972100
    7        0.0525419000
    8       -0.0238503900
    9        0.0018223200
   10       -0.0005318300
   11        0.0126463000
   12        0.0000000000
   13        0.0000000000
   14        0.0435200800
   15       -0.0000000000
   16       -0.0000000000
   17       13.9251060400
   18       -0.0000000000
   19        0.0000000000
   20       -9.1713931600
   21        0.0000000000
   22       -0.0000000000
   23       -0.1034127200
   24       -0.0562395700
   25       -0.0562395700
   26        0.0000000000
   27       -0.0000000000
   28       -0.0000000000
   29       -0.1942614100
   30       -0.3408336100
   31       -0.3408336100
   32       -0.0000000000
   33       -0.0000000000
   34        0.0000000000
   35        0.5005962300
   36        0.8958289400
   37       -1.3058714400
   38        0.0808889400
   39        0.5590883200
   40       -0.0898972100
   41        0.0525419000
   42       -0.0238503900
   43        0.0018223200
   44       -0.0005318300
   45       -0.0126463000
   46       -0.0000000000
   47       -0.0000000000
   48       -0.0435200800
   49        0.0000000000
   50        0.0000000000
   51      -13.9251060400
   52        0.0000000000
   53       -0.0000000000
   54        9.1713931600
   55       -0.0000000000
   56        0.0000000000
   57       -0.1034127200
   58       -0.0562395700
   59       -0.0562395700
   60       -0.0000000000
   61        0.0000000000
   62        0.0000000000
   63       -0.1942614100
   64       -0.3408336100
   65       -0.3408336100
   66        0.0000000000
   67        0.0000000000
   68       -0.0000000000
 Ene=          0.01849060
 Spin= Alpha
 Occup=        0.00000000
    1       -0.0014608200
    2       -0.0001454900
    3       -0.0004847800
    4        0.0089890900
    5       -6.0438598000
    6       -0.4025953300
    7       -0.3784317500
    8        0.0936678400
    9        0.0007297300
   10        0.0004491900
   11        0.1186857900
   12       -0.0000000000
   13        0.0000000000
   14       -0.0224240500
   15       -0.0000000000
   16       -0.0000000000