[Molden Format]
[Title]
 Molden2AIM, Version 3.1.0 (02/25/2015)           Time: Thu Oct 17 19:54:15 2024

[Atoms] AU
E+       1       4     0.00000000     0.00000000     0.00000000
E+       2       4    30.20000000     0.00000000     0.00000000
[GTO]
    1 0
 S   1 1.0
    0.1000000000D-03      0.1000000000D+01
 S   1 1.0
    0.3000000000D-03      0.1000000000D+01
 S   1 1.0
    0.9000000000D-03      0.1000000000D+01
 S   1 1.0
    0.2700000000D-02      0.1000000000D+01
 S   1 1.0
    0.8100000000D-02      0.1000000000D+01
 S   1 1.0
    0.2430000000D-01      0.1000000000D+01
 S   1 1.0
    0.7290000000D-01      0.1000000000D+01
 S   1 1.0
    0.2187000000D+00      0.1000000000D+01
 S   1 1.0
    0.6561000000D+00      0.1000000000D+01
 S   1 1.0
    0.1968300000D+01      0.1000000000D+01
 P   1 1.0
    0.1000000000D-03      0.1000000000D+01
 P   1 1.0
    0.3000000000D-03      0.1000000000D+01
 P   1 1.0
    0.9000000000D-03      0.1000000000D+01
 P   1 1.0
    0.2700000000D-02      0.1000000000D+01
 D   1 1.0
    0.1000000000D-03      0.1000000000D+01
 D   1 1.0
    0.3000000000D-03      0.1000000000D+01

    2 0
 S   1 1.0
    0.1000000000D-03      0.1000000000D+01
 S   1 1.0
    0.3000000000D-03      0.1000000000D+01
 S   1 1.0
    0.9000000000D-03      0.1000000000D+01
 S   1 1.0
    0.2700000000D-02      0.1000000000D+01
 S   1 1.0
    0.8100000000D-02      0.1000000000D+01
 S   1 1.0
    0.2430000000D-01      0.1000000000D+01
 S   1 1.0
    0.7290000000D-01      0.1000000000D+01
 S   1 1.0
    0.2187000000D+00      0.1000000000D+01
 S   1 1.0
    0.6561000000D+00      0.1000000000D+01
 S   1 1.0
    0.1968300000D+01      0.1000000000D+01
 P   1 1.0
    0.1000000000D-03      0.1000000000D+01
 P   1 1.0
    0.3000000000D-03      0.1000000000D+01
 P   1 1.0
    0.9000000000D-03      0.1000000000D+01
 P   1 1.0
    0.2700000000D-02      0.1000000000D+01
 D   1 1.0
    0.1000000000D-03      0.1000000000D+01
 D   1 1.0
    0.3000000000D-03      0.1000000000D+01


[MO]
 Ene=         -0.00329929
 Spin= Alpha
 Occup=        1.00000000
    1        0.0930392800
    2       -0.0790627500
    3       -0.0029015100
    4       -0.2667447400
    5       -0.2387255400
    6       -0.1758160200
    7       -0.1131375500
    8        0.0911067900
    9        0.0061380600
   10       -0.0000764800
   11       -0.3699874500
   12       -0.0000000000
   13       -0.0000000000
   14        0.1238858600
   15        0.0000000000
   16        0.0000000000
   17       -0.0584320300
   18       -0.0000000000
   19       -0.0000000000
   20        0.0284602500
   21        0.0000000000
   22       -0.0000000000
   23       -0.0958958800
   24        0.0028170400
   25        0.0028170400
   26       -0.0000000000
   27       -0.0000000000
   28        0.0000000000
   29        0.0597827400
   30        0.0111325800
   31        0.0111325800
   32        0.0000000000
   33        0.0000000000
   34       -0.0000000000
   35        0.0930392800
   36       -0.0790627500
   37       -0.0029015100
   38       -0.2667447400
   39       -0.2387255400
   40       -0.1758160200
   41       -0.1131375500
   42        0.0911067900
   43        0.0061380600
   44       -0.0000764800
   45        0.3699874500
   46        0.0000000000
   47        0.0000000000
   48       -0.1238858600
   49       -0.0000000000
   50       -0.0000000000
   51        0.0584320300
   52       -0.0000000000
   53        0.0000000000
   54       -0.0284602500
   55        0.0000000000
   56       -0.0000000000
   57       -0.0958958800
   58        0.0028170400
   59        0.0028170400
   60       -0.0000000000
   61       -0.0000000000
   62        0.0000000000
   63        0.0597827400
   64        0.0111325800
   65        0.0111325800
   66        0.0000000000
   67        0.0000000000
   68       -0.0000000000
 Ene=         -0.00241011
 Spin= Alpha
 Occup=        0.00000000
    1       -0.0025044900
    2       -0.0087875300
    3       -0.1108215900
    4       -0.3475354500
    5       -0.2466321800
    6       -0.1987501800
    7       -0.1181228700
    8        0.0967637100
    9        0.0068411800
   10       -0.0001264000
   11        0.0143885800
   12        0.0000000000
   13        0.0000000000
   14        0.0238449700
   15        0.0000000000
   16        0.0000000000
   17       -0.1138898800
   18        0.0000000000
   19       -0.0000000000
   20        0.0403959300
   21       -0.0000000000
   22        0.0000000000
   23        0.0241081200
   24        0.0129759100
   25        0.0129759100
   26        0.0000000000
   27        0.0000000000
   28        0.0000000000
   29        0.0400665400
   30        0.0521269700
   31        0.0521269700
   32        0.0000000000
   33        0.0000000000
   34       -0.0000000000
   35        0.0025044900
   36        0.0087875300
   37        0.1108215900
   38        0.3475354500
   39        0.2466321800
   40        0.1987501800
   41        0.1181228700
   42       -0.0967637100
   43       -0.0068411800
   44        0.0001264000
   45        0.0143885800
   46       -0.0000000000
   47       -0.0000000000
   48        0.0238449700
   49       -0.0000000000
   50       -0.0000000000
   51       -0.1138898800
   52       -0.0000000000
   53        0.0000000000
   54        0.0403959300
   55        0.0000000000
   56       -0.0000000000
   57       -0.0241081200
   58       -0.0129759100
   59       -0.0129759100
   60        0.0000000000
   61        0.0000000000
   62        0.0000000000
   63       -0.0400665400
   64       -0.0521269700
   65       -0.0521269700
   66        0.0000000000
   67        0.0000000000
   68       -0.0000000000
 Ene=          0.00407291
 Spin= Alpha
 Occup=        0.00000000
    1       -0.7997427700
    2        0.0362652000
    3        1.1184016500
    4       -0.8647299600
    5       -0.0088559300
    6       -0.1152897500
    7       -0.0340330500
    8        0.0338282700
    9        0.0034524900
   10       -0.0001927600
   11        2.1421830200
   12        0.0000000000
   13        0.0000000000
   14       -0.6756878700
   15       -0.0000000000
   16        0.0000000000
   17        0.5081334800
   18        0.0000000000
   19       -0.0000000000
   20       -0.0542930700
   21       -0.0000000000
   22       -0.0000000000
   23        0.5887232600
   24        0.0217599400
   25        0.0217599400
   26        0.0000000000
   27        0.0000000000
   28        0.0000000000
   29       -0.1660446800
   30        0.0794227300
   31        0.0794227300
   32       -0.0000000000
   33        0.0000000000
   34       -0.0000000000
   35       -0.7997427700
   36        0.0362652000
   37        1.1184016500
   38       -0.8647299600
   39       -0.0088559300
   40       -0.1152897500
   41       -0.0340330500
   42        0.0338282700
   43        0.0034524900
   44       -0.0001927600
   45       -2.1421830200
   46       -0.0000000000
   47       -0.0000000000
   48        0.6756878700
   49        0.0000000000
   50       -0.0000000000
   51       -0.5081334800
   52       -0.0000000000
   53       -0.0000000000
   54        0.0542930700
   55        0.0000000000
   56        0.0000000000
   57        0.5887232600
   58        0.0217599400
   59        0.0217599400
   60        0.0000000000
   61        0.0000000000
   62       -0.0000000000
   63       -0.1660446800
   64        0.0794227300
   65        0.0794227300
   66       -0.0000000000
   67        0.0000000000
   68        0.0000000000
 Ene=          0.00485785
 Spin= Alpha
 Occup=        0.00000000
    1       -0.0000000000
    2        0.0000000000
    3       -0.0000000000
    4        0.0000000000
    5       -0.0000000000
    6        0.0000000000
    7       -0.0000000000
    8       -0.0000000000
    9        0.0000000000
   10       -0.0000000000
   11        0.0000000000
   12        0.0211728500
   13       -0.0177078100
   14       -0.0000000000
   15       -0.0736456600
   16        0.0615931700
   17       -0.0000000000
   18        0.2793840400
   19       -0.2336614200
   20        0.0000000000
   21        0.2364854200
   22       -0.1977833800
   23        0.0000000000
   24       -0.0000000000
   25       -0.0000000000
   26        0.0083183700
   27       -0.0069570200
   28        0.0000000000
   29       -0.0000000000
   30       -0.0000000000
   31       -0.0000000000
   32        0.0141087700
   33       -0.0117998000
   34       -0.0000000000
   35       -0.0000000000
   36        0.0000000000
   37       -0.0000000000
   38        0.0000000000
   39       -0.0000000000
   40        0.0000000000
   41        0.0000000000
   42       -0.0000000000
   43       -0.0000000000
   44        0.0000000000
   45       -0.0000000000
   46        0.0211728500
   47       -0.0177078100
   48        0.0000000000
   49       -0.0736456600
   50        0.0615931700
   51        0.0000000000
   52        0.2793840400
   53       -0.2336614200
   54       -0.0000000000
   55        0.2364854200
   56       -0.1977833800
   57        0.0000000000
   58        0.0000000000
   59        0.0000000000
   60       -0.0083183700
   61        0.0069570200
   62       -0.0000000000
   63        0.0000000000
   64       -0.0000000000
   65       -0.0000000000
   66       -0.0141087700
   67        0.0117998000
   68        0.0000000000
 Ene=          0.00485785
 Spin= Alpha
 Occup=        0.00000000
    1        0.0000000000
    2        0.0000000000
    3       -0.0000000000
    4        0.0000000000
    5        0.0000000000
    6        0.0000000000
    7       -0.0000000000
    8        0.0000000000
    9       -0.0000000000
   10        0.0000000000
   11       -0.0000000000
   12       -0.0177078100
   13       -0.0211728500
   14        0.0000000000
   15        0.0615931700
   16        0.0736456600
   17       -0.0000000000
   18       -0.2336614200
   19       -0.2793840400
   20        0.0000000000
   21       -0.1977833800
   22       -0.2364854200
   23       -0.0000000000
   24        0.0000000000
   25       -0.0000000000
   26       -0.0069570200
   27       -0.0083183700
   28       -0.0000000000
   29        0.0000000000
   30        0.0000000000
   31        0.0000000000
   32       -0.0117998000
   33       -0.0141087700
   34       -0.0000000000
   35        0.0000000000
   36        0.0000000000
   37        0.0000000000
   38        0.0000000000
   39       -0.0000000000
   40        0.0000000000
   41       -0.0000000000
   42        0.0000000000
   43        0.0000000000
   44       -0.0000000000
   45        0.0000000000
   46       -0.0177078100
   47       -0.0211728500
   48       -0.0000000000
   49        0.0615931700
   50        0.0736456600
   51       -0.0000000000
   52       -0.2336614200
   53       -0.2793840400
   54       -0.0000000000
   55       -0.1977833800
   56       -0.2364854200
   57       -0.0000000000
   58       -0.0000000000
   59        0.0000000000
   60        0.0069570200
   61        0.0083183700
   62       -0.0000000000
   63       -0.0000000000
   64       -0.0000000000
   65       -0.0000000000
   66        0.0117998000
   67        0.0141087700
   68        0.0000000000
 Ene=          0.00746895
 Spin= Alpha
 Occup=        0.00000000
    1        0.0000000000
    2        0.0000000000
    3        0.0000000000
    4       -0.0000000000
    5       -0.0000000000
    6       -0.0000000000
    7       -0.0000000000
    8        0.0000000000
    9        0.0000000000
   10       -0.0000000000
   11        0.0000000000
   12       -1.1510784200
   13       -2.2386623100
   14        0.0000000000
   15        0.2360627600
   16        0.4591040900
   17        0.0000000000
   18       -0.1413245300
   19       -0.2748534700
   20        0.0000000000
   21       -0.3221680800
   22       -0.6265650900
   23        0.0000000000
   24        0.0000000000
   25        0.0000000000
   26       -0.1724488900
   27       -0.3353853500
   28        0.0000000000
   29        0.0000000000
   30        0.0000000000
   31        0.0000000000
   32        0.0463811700
   33        0.0902039200
   34       -0.0000000000
   35       -0.0000000000
   36       -0.0000000000
   37       -0.0000000000
   38       -0.0000000000
   39        0.0000000000
   40        0.0000000000
   41        0.0000000000
   42       -0.0000000000
   43        0.0000000000
   44       -0.0000000000
   45        0.0000000000
   46        1.1510784200
   47        2.2386623100
   48        0.0000000000
   49       -0.2360627600
   50       -0.4591040900
   51        0.0000000000
   52        0.1413245300
   53        0.2748534700
   54       -0.0000000000
   55        0.3221680800
   56        0.6265650900
   57       -0.0000000000
   58       -0.0000000000
   59       -0.0000000000
   60       -0.1724488900
   61       -0.3353853500
   62       -0.0000000000
   63       -0.0000000000
   64        0.0000000000
   65        0.0000000000
   66        0.0463811700
   67        0.0902039200
   68        0.0000000000
 Ene=          0.00746895
 Spin= Alpha
 Occup=        0.00000000
    1        0.0000000000
    2        0.0000000000
    3       -0.0000000000
    4        0.0000000000
    5       -0.0000000000
    6        0.0000000000
    7       -0.0000000000
    8        0.0000000000
    9       -0.0000000000
   10       -0.0000000000
   11        0.0000000000
   12       -2.2386623100
   13        1.1510784200
   14        0.0000000000
   15        0.4591040900
   16       -0.2360627600
   17       -0.0000000000
   18       -0.2748534700
   19        0.1413245300
   20       -0.0000000000
   21       -0.6265650900
   22        0.3221680800
   23        0.0000000000
   24        0.0000000000
   25        0.0000000000
   26       -0.3353853500
   27        0.1724488900
   28        0.0000000000
   29        0.0000000000
   30       -0.0000000000
   31       -0.0000000000
   32        0.0902039200
   33       -0.0463811700
   34        0.0000000000
   35       -0.0000000000
   36       -0.0000000000
   37        0.0000000000
   38        0.0000000000
   39       -0.0000000000
   40        0.0000000000
   41       -0.0000000000
   42        0.0000000000
   43        0.0000000000
   44        0.0000000000
   45        0.0000000000
   46        2.2386623100
   47       -1.1510784200
   48        0.0000000000
   49       -0.4591040900
   50        0.2360627600
   51       -0.0000000000
   52        0.2748534700
   53       -0.1413245300
   54        0.0000000000
   55        0.6265650900
   56       -0.3221680800
   57        0.0000000000
   58       -0.0000000000
   59       -0.0000000000
   60       -0.3353853500
   61        0.1724488900
   62       -0.0000000000
   63       -0.0000000000
   64       -0.0000000000
   65       -0.0000000000
   66        0.0902039200
   67       -0.0463811700
   68       -0.0000000000
 Ene=          0.00791449
 Spin= Alpha
 Occup=        0.00000000
    1        0.0195399500
    2       -0.0074424000
    3       -3.9319487600
    4       -0.0612177800
    5        0.5081587300
    6        0.0306295400
    7        0.0807583000
    8       -0.0547888800
    9       -0.0020367100
   10       -0.0001986500
   11       -0.1179911600
   12       -0.0000000000
   13        0.0000000000
   14        0.0244919900
   15        0.0000000000
   16       -0.0000000000
   17       -1.3531359100
   18       -0.0000000000
   19        0.0000000000
   20       -0.0999496600
   21        0.0000000000
   22       -0.0000000000
   23       -0.1011564800
   24       -0.1928543800
   25       -0.1928543800
   26       -0.0000000000
   27        0.0000000000
   28        0.0000000000
   29       -0.2721665800
   30       -0.1143832000
   31       -0.1143832000
   32        0.0000000000
   33       -0.0000000000
   34       -0.0000000000
   35       -0.0195399500
   36        0.0074424000
   37        3.9319487600
   38        0.0612177800
   39       -0.5081587300
   40       -0.0306295400
   41       -0.0807583000
   42        0.0547888800
   43        0.0020367100
   44        0.0001986500
   45       -0.1179911600
   46        0.0000000000
   47       -0.0000000000
   48        0.0244919900
   49       -0.0000000000
   50        0.0000000000
   51       -1.3531359100
   52        0.0000000000
   53       -0.0000000000
   54       -0.0999496600
   55       -0.0000000000
   56        0.0000000000
   57        0.1011564800
   58        0.1928543800
   59        0.1928543800
   60       -0.0000000000
   61        0.0000000000
   62       -0.0000000000
   63        0.2721665800
   64        0.1143832000
   65        0.1143832000
   66        0.0000000000
   67       -0.0000000000
   68        0.0000000000
 Ene=          0.00826474
 Spin= Alpha
 Occup=        0.00000000
    1        0.0716262200
    2       -0.0887128900
    3       -0.1205814200
    4       -0.0560935800
    5       -0.0043103500
    6        0.0225598000
    7       -0.0004090200
    8       -0.0020628700
    9       -0.0005537400
   10        0.0000605700
   11       -0.4028753700
   12       -0.0000000000
   13       -0.0000000000
   14        0.1377146200
   15        0.0000000000
   16        0.0000000000
   17       -0.1029865500
   18       -0.0000000000
   19       -0.0000000000
   20        0.6506655300
   21       -0.0000000000
   22        0.0000000000
   23       -0.1001182600
   24        0.0077465400
   25        0.0077465400
   26       -0.0000000000
   27       -0.0000000000
   28       -0.0000000000
   29        0.0762999500
   30        0.0222777200
   31        0.0222777200
   32        0.0000000000
   33        0.0000000000
   34        0.0000000000
   35        0.0716262200
   36       -0.0887128900
   37       -0.1205814200
   38       -0.0560935800
   39       -0.0043103500
   40        0.0225598000
   41       -0.0004090200
   42       -0.0020628700
   43       -0.0005537400
   44        0.0000605700
   45        0.4028753700
   46        0.0000000000
   47        0.0000000000
   48       -0.1377146200
   49       -0.0000000000
   50       -0.0000000000
   51        0.1029865500
   52       -0.0000000000
   53        0.0000000000
   54       -0.6506655300
   55        0.0000000000
   56       -0.0000000000
   57       -0.1001182600
   58        0.0077465400
   59        0.0077465400
   60       -0.0000000000
   61       -0.0000000000
   62       -0.0000000000
   63        0.0762999500
   64        0.0222777200
   65        0.0222777200
   66        0.0000000000
   67        0.0000000000
   68       -0.0000000000
 Ene=          0.01175530
 Spin= Alpha
 Occup=        0.00000000
    1        0.0000000000
    2       -0.0000000000
    3       -0.0000000000
    4        0.0000000000
    5       -0.0000000000
    6       -0.0000000000
    7       -0.0000000000
    8        0.0000000000
    9        0.0000000000
   10       -0.0000000000
   11       -0.0000000000
   12        0.0578914100
   13       -0.0011869300
   14        0.0000000000
   15       -0.2044235700
   16        0.0041912200
   17       -0.0000000000
   18        0.9186397100
   19       -0.0188345400
   20       -0.0000000000
   21       -0.9223123000
   22        0.0189098300
   23       -0.0000000000
   24       -0.0000000000
   25       -0.0000000000
   26        0.0167074500
   27       -0.0003425500
   28        0.0000000000
   29        0.0000000000
   30        0.0000000000
   31        0.0000000000
   32        0.0441028800
   33       -0.0009042300
   34       -0.0000000000
   35        0.0000000000
   36       -0.0000000000
   37        0.0000000000
   38        0.0000000000
   39       -0.0000000000
   40        0.0000000000
   41       -0.0000000000
   42        0.0000000000
   43       -0.0000000000
   44       -0.0000000000
   45        0.0000000000
   46        0.0578914100
   47       -0.0011869300
   48       -0.0000000000
   49       -0.2044235700
   50        0.0041912200
   51       -0.0000000000
   52        0.9186397100
   53       -0.0188345400
   54       -0.0000000000
   55       -0.9223123000
   56        0.0189098300
   57       -0.0000000000
   58        0.0000000000
   59        0.0000000000
   60       -0.0167074500
   61        0.0003425500
   62       -0.0000000000
   63        0.0000000000
   64        0.0000000000
   65        0.0000000000
   66       -0.0441028800
   67        0.0009042300
   68        0.0000000000
 Ene=          0.01175530
 Spin= Alpha
 Occup=        0.00000000
    1        0.0000000000
    2       -0.0000000000
    3        0.0000000000
    4        0.0000000000
    5       -0.0000000000
    6        0.0000000000
    7       -0.0000000000
    8        0.0000000000
    9        0.0000000000
   10       -0.0000000000
   11       -0.0000000000
   12        0.0011869300
   13        0.0578914100
   14        0.0000000000
   15       -0.0041912200
   16       -0.2044235700
   17        0.0000000000
   18        0.0188345400
   19        0.9186397100
   20        0.0000000000
   21       -0.0189098300
   22       -0.9223123000
   23       -0.0000000000
   24        0.0000000000
   25        0.0000000000
   26        0.0003425500
   27        0.0167074500
   28        0.0000000000
   29        0.0000000000
   30        0.0000000000
   31        0.0000000000
   32        0.0009042300
   33        0.0441028800
   34        0.0000000000
   35        0.0000000000
   36       -0.0000000000
   37       -0.0000000000
   38        0.0000000000
   39       -0.0000000000
   40       -0.0000000000
   41       -0.0000000000
   42        0.0000000000
   43       -0.0000000000
   44        0.0000000000
   45        0.0000000000
   46        0.0011869300
   47        0.0578914100
   48       -0.0000000000
   49       -0.0041912200
   50       -0.2044235700
   51        0.0000000000
   52        0.0188345400
   53        0.9186397100
   54        0.0000000000
   55       -0.0189098300
   56       -0.9223123000
   57       -0.0000000000
   58       -0.0000000000
   59       -0.0000000000
   60       -0.0003425500
   61       -0.0167074500
   62        0.0000000000
   63        0.0000000000
   64        0.0000000000
   65        0.0000000000
   66       -0.0009042300
   67       -0.0441028800
   68       -0.0000000000
 Ene=          0.01196540
 Spin= Alpha
 Occup=        0.00000000
    1       -0.0161877800
    2        0.0109005700
    3        3.6417421100
    4       -0.0628199400
    5        0.0227924100
    6        0.0736662000
    7        0.0134840500
    8       -0.0160842400
    9       -0.0020079500
   10        0.0001414500
   11        0.0979013700
   12       -0.0000000000
   13       -0.0000000000
   14       -0.0317392500
   15        0.0000000000
   16        0.0000000000
   17        1.2911717500
   18       -0.0000000000
   19       -0.0000000000
   20        1.3462244600
   21       -0.0000000000
   22        0.0000000000
   23        0.0810557200
   24        0.1640418100
   25        0.1640418100
   26       -0.0000000000
   27       -0.0000000000
   28       -0.0000000000
   29        0.2205453900
   30        0.0810978800
   31        0.0810978800
   32        0.0000000000
   33        0.0000000000
   34        0.0000000000
   35        0.0161877800
   36       -0.0109005700
   37       -3.6417421100
   38        0.0628199400
   39       -0.0227924100
   40       -0.0736662000
   41       -0.0134840500
   42        0.0160842400
   43        0.0020079500
   44       -0.0001414500
   45        0.0979013700
   46        0.0000000000
   47        0.0000000000
   48       -0.0317392500
   49       -0.0000000000
   50       -0.0000000000
   51        1.2911717500
   52        0.0000000000
   53       -0.0000000000
   54        1.3462244600
   55       -0.0000000000
   56        0.0000000000
   57       -0.0810557200
   58       -0.1640418100
   59       -0.1640418100
   60       -0.0000000000
   61       -0.0000000000
   62        0.0000000000
   63       -0.2205453900
   64       -0.0810978800
   65       -0.0810978800
   66        0.0000000000
   67        0.0000000000
   68       -0.0000000000
 Ene=          0.01219390
 Spin= Alpha
 Occup=        0.00000000
    1        0.5168403600
    2       -0.5256808200
    3       -0.2071045700
    4        1.6691274200
    5       -1.1200633700
    6        0.0440272400
    7       -0.1330693500
    8        0.0804987400
    9        0.0010803300
   10        0.0005678900
   11       -2.7978218900
   12       -0.0000000000
   13       -0.0000000000
   14        0.5485333600
   15        0.0000000000
   16        0.0000000000
   17       -0.6109573100
   18       -0.0000000000
   19       -0.0000000000
   20        0.1646125900
   21        0.0000000000
   22        0.0000000000
   23       -0.6926533800
   24        0.0478981700
   25        0.0478981700
   26       -0.0000000000
   27       -0.0000000000
   28        0.0000000000
   29        0.3423379600
   30        0.1696580600
   31        0.1696580600
   32        0.0000000000
   33        0.0000000000
   34       -0.0000000000
   35        0.5168403600
   36       -0.5256808200
   37       -0.2071045700
   38        1.6691274200
   39       -1.1200633700
   40        0.0440272400
   41       -0.1330693500
   42        0.0804987400
   43        0.0010803300
   44        0.0005678900
   45        2.7978218900
   46        0.0000000000
   47        0.0000000000
   48       -0.5485333600
   49       -0.0000000000
   50       -0.0000000000
   51        0.6109573100
   52        0.0000000000
   53        0.0000000000
   54       -0.1646125900
   55       -0.0000000000
   56        0.0000000000
   57       -0.6926533800
   58        0.0478981700
   59        0.0478981700
   60       -0.0000000000
   61       -0.0000000000
   62       -0.0000000000
   63        0.3423379600
   64        0.1696580600
   65        0.1696580600
   66        0.0000000000
   67        0.0000000000
   68        0.0000000000
 Ene=          0.01731140
 Spin= Alpha
 Occup=        0.00000000
    1        0.0100531100
    2       -0.0114582300
    3       -5.1997137400
    4        3.1974588300
    5       -1.4278671500
    6        0.1237517400
    7       -0.1223463900
    8        0.0661946900
    9       -0.0007086400
   10        0.0006958300
   11       -0.0616771000
   12        0.0000000000
   13        0.0000000000
   14       -0.0001974000
   15       -0.0000000000
   16       -0.0000000000
   17       -1.6370143600
   18        0.0000000000
   19       -0.0000000000
   20        0.5965843900
   21       -0.0000000000
   22        0.0000000000
   23       -0.0306308000
   24       -0.1115872300
   25       -0.1115872300
   26        0.0000000000
   27        0.0000000000
   28        0.0000000000
   29       -0.1778116800
   30       -0.0372092300
   31       -0.0372092300
   32       -0.0000000000
   33       -0.0000000000
   34       -0.0000000000
   35       -0.0100531100
   36        0.0114582300
   37        5.1997137400
   38       -3.1974588300
   39        1.4278671500
   40       -0.1237517400
   41        0.1223463900
   42       -0.0661946900
   43        0.0007086400
   44       -0.0006958300
   45       -0.0616771000
   46       -0.0000000000
   47       -0.0000000000
   48       -0.0001974000
   49        0.0000000000
   50        0.0000000000
   51       -1.6370143600
   52       -0.0000000000
   53        0.0000000000
   54        0.5965843900
   55        0.0000000000
   56       -0.0000000000
   57        0.0306308000
   58        0.1115872300
   59        0.1115872300
   60        0.0000000000
   61        0.0000000000
   62       -0.0000000000
   63        0.1778116800
   64        0.0372092300
   65        0.0372092300
   66       -0.0000000000
   67       -0.0000000000
   68        0.0000000000
 Ene=          0.01750010
 Spin= Alpha
 Occup=        0.00000000
    1        0.0000000000
    2        0.0000000000
    3        0.0000000000
    4       -0.0000000000
    5        0.0000000000
    6       -0.0000000000
    7        0.0000000000
    8       -0.0000000000
    9        0.0000000000
   10       -0.0000000000
   11       -0.0000000000
   12       -0.9975430500
   13      -13.1503158000
   14        0.0000000000
   15        0.2135481400
   16        2.8151420900
   17       -0.0000000000
   18       -0.1485938700
   19       -1.9588692000
   20        0.0000000000
   21        0.0713370900
   22        0.9404157700
   23       -0.0000000000
   24        0.0000000000
   25        0.0000000000
   26       -0.1496443200
   27       -1.9727168800
   28        0.0000000000
   29        0.0000000000
   30        0.0000000000
   31        0.0000000000
   32        0.0427211100
   33        0.5631797800
   34       -0.0000000000
   35       -0.0000000000
   36       -0.0000000000
   37        0.0000000000
   38       -0.0000000000
   39        0.0000000000
   40        0.0000000000
   41        0.0000000000
   42       -0.0000000000
   43       -0.0000000000
   44       -0.0000000000
   45        0.0000000000
   46        0.9975430500
   47       13.1503158000
   48        0.0000000000
   49       -0.2135481400
   50       -2.8151420900
   51        0.0000000000
   52        0.1485938700
   53        1.9588692000
   54       -0.0000000000
   55       -0.0713370900
   56       -0.9404157700
   57       -0.0000000000
   58        0.0000000000
   59        0.0000000000
   60       -0.1496443200
   61       -1.9727168800
   62       -0.0000000000
   63        0.0000000000
   64        0.0000000000
   65        0.0000000000
   66        0.0427211100
   67        0.5631797800
   68        0.0000000000
 Ene=          0.01750010
 Spin= Alpha
 Occup=        0.00000000
    1        0.0000000000
    2        0.0000000000
    3       -0.0000000000
    4        0.0000000000
    5       -0.0000000000
    6        0.0000000000
    7       -0.0000000000
    8        0.0000000000
    9        0.0000000000
   10       -0.0000000000
   11        0.0000000000
   12      -13.1503158000
   13        0.9975430500
   14        0.0000000000
   15        2.8151420900
   16       -0.2135481400