[Molden Format]
[Title]
 Molden2AIM, Version 3.1.0 (02/25/2015)           Time: Thu Oct 17 19:52:07 2024

[Atoms] AU
E+       1       4     0.00000000     0.00000000     0.00000000
E+       2       4     3.40000000     0.00000000     0.00000000
[GTO]
    1 0
 S   1 1.0
    0.1000000000D-03      0.1000000000D+01
 S   1 1.0
    0.3000000000D-03      0.1000000000D+01
 S   1 1.0
    0.9000000000D-03      0.1000000000D+01
 S   1 1.0
    0.2700000000D-02      0.1000000000D+01
 S   1 1.0
    0.8100000000D-02      0.1000000000D+01
 S   1 1.0
    0.2430000000D-01      0.1000000000D+01
 S   1 1.0
    0.7290000000D-01      0.1000000000D+01
 S   1 1.0
    0.2187000000D+00      0.1000000000D+01
 S   1 1.0
    0.6561000000D+00      0.1000000000D+01
 S   1 1.0
    0.1968300000D+01      0.1000000000D+01
 P   1 1.0
    0.1000000000D-03      0.1000000000D+01
 P   1 1.0
    0.3000000000D-03      0.1000000000D+01
 P   1 1.0
    0.9000000000D-03      0.1000000000D+01
 P   1 1.0
    0.2700000000D-02      0.1000000000D+01
 D   1 1.0
    0.1000000000D-03      0.1000000000D+01
 D   1 1.0
    0.3000000000D-03      0.1000000000D+01

    2 0
 S   1 1.0
    0.1000000000D-03      0.1000000000D+01
 S   1 1.0
    0.3000000000D-03      0.1000000000D+01
 S   1 1.0
    0.9000000000D-03      0.1000000000D+01
 S   1 1.0
    0.2700000000D-02      0.1000000000D+01
 S   1 1.0
    0.8100000000D-02      0.1000000000D+01
 S   1 1.0
    0.2430000000D-01      0.1000000000D+01
 S   1 1.0
    0.7290000000D-01      0.1000000000D+01
 S   1 1.0
    0.2187000000D+00      0.1000000000D+01
 S   1 1.0
    0.6561000000D+00      0.1000000000D+01
 S   1 1.0
    0.1968300000D+01      0.1000000000D+01
 P   1 1.0
    0.1000000000D-03      0.1000000000D+01
 P   1 1.0
    0.3000000000D-03      0.1000000000D+01
 P   1 1.0
    0.9000000000D-03      0.1000000000D+01
 P   1 1.0
    0.2700000000D-02      0.1000000000D+01
 D   1 1.0
    0.1000000000D-03      0.1000000000D+01
 D   1 1.0
    0.3000000000D-03      0.1000000000D+01


[MO]
 Ene=         -0.02288430
 Spin= Alpha
 Occup=        1.00000000
    1       -0.0082247300
    2       -0.0085782700
    3        0.0147762500
    4        0.0009227700
    5        0.1650395100
    6        0.2559454600
    7        0.2568336200
    8       -0.2018510100
    9       -0.0146882000
   10       -0.0001361900
   11       -0.0003159400
   12        0.0000000000
   13       -0.0000000000
   14       -0.0007036500
   15        0.0000000000
   16       -0.0000000000
   17       -0.0140011200
   18        0.0000000000
   19       -0.0000000000
   20        0.0208867200
   21       -0.0000000000
   22        0.0000000000
   23        0.0012773900
   24        0.0011585600
   25        0.0011585600
   26        0.0000000000
   27       -0.0000000000
   28        0.0000000000
   29        0.0037357300
   30        0.0041541900
   31        0.0041541900
   32        0.0000000000
   33        0.0000000000
   34       -0.0000000000
   35       -0.0082247300
   36       -0.0085782700
   37        0.0147762500
   38        0.0009227700
   39        0.1650395100
   40        0.2559454600
   41        0.2568336200
   42       -0.2018510100
   43       -0.0146882000
   44       -0.0001361900
   45        0.0003159400
   46       -0.0000000000
   47        0.0000000000
   48        0.0007036500
   49       -0.0000000000
   50        0.0000000000
   51        0.0140011200
   52       -0.0000000000
   53       -0.0000000000
   54       -0.0208867200
   55        0.0000000000
   56       -0.0000000000
   57        0.0012773900
   58        0.0011585600
   59        0.0011585600
   60       -0.0000000000
   61        0.0000000000
   62       -0.0000000000
   63        0.0037357300
   64        0.0041541900
   65        0.0041541900
   66       -0.0000000000
   67       -0.0000000000
   68        0.0000000000
 Ene=          0.00210934
 Spin= Alpha
 Occup=        0.00000000
    1       -0.1255476100
    2       -0.3137443100
    3        1.0849190700
    4       -0.4888167100
    5        0.0822822300
    6       -0.0857695900
    7       -0.0107809700
    8        0.0168121900
    9        0.0030969900
   10       -0.0002336300
   11       -0.0047841400
   12        0.0000000000
   13       -0.0000000000
   14       -0.0228656700
   15        0.0000000000
   16       -0.0000000000
   17       -0.2303005500
   18       -0.0000000000
   19        0.0000000000
   20        0.1835002500
   21        0.0000000000
   22        0.0000000000
   23        0.0185951600
   24        0.0161616100
   25        0.0161616100
   26        0.0000000000
   27        0.0000000000
   28       -0.0000000000
   29        0.0825063100
   30        0.0906634100
   31        0.0906634100
   32       -0.0000000000
   33        0.0000000000
   34        0.0000000000
   35       -0.1255476100
   36       -0.3137443100
   37        1.0849190700
   38       -0.4888167100
   39        0.0822822300
   40       -0.0857695900
   41       -0.0107809700
   42        0.0168121900
   43        0.0030969900
   44       -0.0002336300
   45        0.0047841400
   46       -0.0000000000
   47        0.0000000000
   48        0.0228656700
   49       -0.0000000000
   50        0.0000000000
   51        0.2303005500
   52        0.0000000000
   53       -0.0000000000
   54       -0.1835002500
   55       -0.0000000000
   56       -0.0000000000
   57        0.0185951600
   58        0.0161616100
   59        0.0161616100
   60       -0.0000000000
   61       -0.0000000000
   62        0.0000000000
   63        0.0825063100
   64        0.0906634100
   65        0.0906634100
   66        0.0000000000
   67       -0.0000000000
   68       -0.0000000000
 Ene=          0.00293428
 Spin= Alpha
 Occup=        0.00000000
    1       -0.0034177700
    2       -0.0064892400
    3        0.0679615700
    4       -0.0914745800
    5        0.4693547500
    6        0.0148306100
    7        0.0440819400
    8       -0.0171256000
    9        0.0011209700
   10       -0.0003500800
   11        0.1814119100
   12       -0.0000000000
   13        0.0000000000
   14        0.1549983400
   15       -0.0000000000
   16        0.0000000000
   17       -0.7903899500
   18        0.0000000000
   19        0.0000000000
   20        0.1045789700
   21       -0.0000000000
   22       -0.0000000000
   23        1.9973275000
   24        1.9821924100
   25        1.9821924100
   26       -0.0000000000
   27        0.0000000000
   28       -0.0000000000
   29        3.8342645000
   30        3.8503122900
   31        3.8503122900
   32       -0.0000000000
   33        0.0000000000
   34        0.0000000000
   35        0.0034177700
   36        0.0064892400
   37       -0.0679615700
   38        0.0914745800
   39       -0.4693547500
   40       -0.0148306100
   41       -0.0440819400
   42        0.0171256000
   43       -0.0011209700
   44        0.0003500800
   45        0.1814119100
   46        0.0000000000
   47       -0.0000000000
   48        0.1549983400
   49        0.0000000000
   50       -0.0000000000
   51       -0.7903899500
   52       -0.0000000000
   53       -0.0000000000
   54        0.1045789700
   55        0.0000000000
   56        0.0000000000
   57       -1.9973275000
   58       -1.9821924100
   59       -1.9821924100
   60       -0.0000000000
   61        0.0000000000
   62        0.0000000000
   63       -3.8342645000
   64       -3.8503122900
   65       -3.8503122900
   66       -0.0000000000
   67        0.0000000000
   68       -0.0000000000
 Ene=          0.00340174
 Spin= Alpha
 Occup=        0.00000000
    1       -0.0000000000
    2       -0.0000000000
    3       -0.0000000000
    4        0.0000000000
    5        0.0000000000
    6        0.0000000000
    7        0.0000000000
    8       -0.0000000000
    9       -0.0000000000
   10        0.0000000000
   11       -0.0000000000
   12       -0.0068335600
   13        0.0251689300
   14        0.0000000000
   15        0.0307706100
   16       -0.1133323700
   17       -0.0000000000
   18       -0.1499535300
   19        0.5522994800
   20        0.0000000000
   21       -0.0014029700
   22        0.0051673400
   23       -0.0000000000
   24       -0.0000000000
   25        0.0000000000
   26       -0.1314586400
   27        0.4841802500
   28       -0.0000000000
   29       -0.0000000000
   30       -0.0000000000
   31       -0.0000000000
   32        0.0806999700
   33       -0.2972290900
   34        0.0000000000
   35        0.0000000000
   36        0.0000000000
   37        0.0000000000
   38       -0.0000000000
   39       -0.0000000000
   40       -0.0000000000
   41       -0.0000000000
   42        0.0000000000
   43       -0.0000000000
   44        0.0000000000
   45        0.0000000000
   46       -0.0068335600
   47        0.0251689300
   48       -0.0000000000
   49        0.0307706100
   50       -0.1133323700
   51       -0.0000000000
   52       -0.1499535300
   53        0.5522994800
   54        0.0000000000
   55       -0.0014029700
   56        0.0051673400
   57        0.0000000000
   58        0.0000000000
   59       -0.0000000000
   60        0.1314586400
   61       -0.4841802500
   62        0.0000000000
   63        0.0000000000
   64        0.0000000000
   65        0.0000000000
   66       -0.0806999700
   67        0.2972290900
   68       -0.0000000000
 Ene=          0.00340174
 Spin= Alpha
 Occup=        0.00000000
    1       -0.0000000000
    2        0.0000000000
    3        0.0000000000
    4       -0.0000000000
    5        0.0000000000
    6       -0.0000000000
    7        0.0000000000
    8        0.0000000000
    9       -0.0000000000
   10        0.0000000000
   11        0.0000000000
   12       -0.0251689300
   13       -0.0068335600
   14       -0.0000000000
   15        0.1133323700
   16        0.0307706100
   17       -0.0000000000
   18       -0.5522994800
   19       -0.1499535300
   20        0.0000000000
   21       -0.0051673400
   22       -0.0014029700
   23        0.0000000000
   24        0.0000000000
   25        0.0000000000
   26       -0.4841802500
   27       -0.1314586400
   28        0.0000000000
   29        0.0000000000
   30        0.0000000000
   31        0.0000000000
   32        0.2972290900
   33        0.0806999700
   34       -0.0000000000
   35        0.0000000000
   36       -0.0000000000
   37       -0.0000000000
   38        0.0000000000
   39        0.0000000000
   40        0.0000000000
   41        0.0000000000
   42       -0.0000000000
   43       -0.0000000000
   44        0.0000000000
   45       -0.0000000000
   46       -0.0251689300
   47       -0.0068335600
   48        0.0000000000
   49        0.1133323700
   50        0.0307706100
   51        0.0000000000
   52       -0.5522994800
   53       -0.1499535300
   54       -0.0000000000
   55       -0.0051673400
   56       -0.0014029700
   57       -0.0000000000
   58       -0.0000000000
   59       -0.0000000000
   60        0.4841802500
   61        0.1314586400
   62       -0.0000000000
   63       -0.0000000000
   64       -0.0000000000
   65       -0.0000000000
   66       -0.2972290900
   67       -0.0806999700
   68        0.0000000000
 Ene=          0.00657571
 Spin= Alpha
 Occup=        0.00000000
    1        0.0000000000
    2        0.0000000000
    3       -0.0000000000
    4       -0.0000000000
    5       -0.0000000000
    6        0.0000000000
    7        0.0000000000
    8       -0.0000000000
    9        0.0000000000
   10       -0.0000000000
   11        0.0000000000
   12        0.0000087500
   13        0.0004009800
   14        0.0000000000
   15       -0.0000231400
   16       -0.0010598400
   17        0.0000000000
   18        0.1986163200
   19        9.0978323200
   20        0.0000000000
   21        0.0310468100
   22        1.4221323900
   23        0.0000000000
   24        0.0000000000
   25        0.0000000000
   26       -0.0007947400
   27       -0.0364039800
   28       -0.0000000000
   29        0.0000000000
   30       -0.0000000000
   31       -0.0000000000
   32        0.0023515200
   33        0.1077137300
   34        0.0000000000
   35        0.0000000000
   36        0.0000000000
   37       -0.0000000000
   38       -0.0000000000
   39       -0.0000000000
   40        0.0000000000
   41        0.0000000000
   42       -0.0000000000
   43        0.0000000000
   44       -0.0000000000
   45       -0.0000000000
   46       -0.0000087500
   47       -0.0004009800
   48       -0.0000000000
   49        0.0000231400
   50        0.0010598400
   51       -0.0000000000
   52       -0.1986163200
   53       -9.0978323200
   54       -0.0000000000
   55       -0.0310468100
   56       -1.4221323900
   57       -0.0000000000
   58       -0.0000000000
   59       -0.0000000000
   60       -0.0007947400
   61       -0.0364039800
   62        0.0000000000
   63       -0.0000000000
   64       -0.0000000000
   65       -0.0000000000
   66        0.0023515200
   67        0.1077137300
   68       -0.0000000000
 Ene=          0.00657571
 Spin= Alpha
 Occup=        0.00000000
    1        0.0000000000
    2        0.0000000000
    3       -0.0000000000
    4       -0.0000000000
    5        0.0000000000
    6       -0.0000000000
    7       -0.0000000000
    8        0.0000000000
    9        0.0000000000
   10        0.0000000000
   11        0.0000000000
   12        0.0004009800
   13       -0.0000087500
   14       -0.0000000000
   15       -0.0010598400
   16        0.0000231400
   17        0.0000000000
   18        9.0978323200
   19       -0.1986163200
   20        0.0000000000
   21        1.4221323900
   22       -0.0310468100
   23        0.0000000000
   24        0.0000000000
   25        0.0000000000
   26       -0.0364039800
   27        0.0007947400
   28       -0.0000000000
   29        0.0000000000
   30        0.0000000000
   31        0.0000000000
   32        0.1077137300
   33       -0.0023515200
   34        0.0000000000
   35        0.0000000000
   36        0.0000000000
   37       -0.0000000000
   38       -0.0000000000
   39       -0.0000000000
   40        0.0000000000
   41        0.0000000000
   42       -0.0000000000
   43       -0.0000000000
   44       -0.0000000000
   45        0.0000000000
   46       -0.0004009800
   47        0.0000087500
   48        0.0000000000
   49        0.0010598400
   50       -0.0000231400
   51       -0.0000000000
   52       -9.0978323200
   53        0.1986163200
   54       -0.0000000000
   55       -1.4221323900
   56        0.0310468100
   57       -0.0000000000
   58       -0.0000000000
   59       -0.0000000000
   60       -0.0364039800
   61        0.0007947400
   62        0.0000000000
   63       -0.0000000000
   64       -0.0000000000
   65       -0.0000000000
   66        0.1077137300
   67       -0.0023515200
   68       -0.0000000000
 Ene=          0.00661482
 Spin= Alpha
 Occup=        0.00000000
    1        0.2729042300
    2        0.5763907700
    3       -0.5488232400
    4       -0.4399223400
    5       -0.0171319300
    6        0.0022584100
    7        0.0004362800
    8       -0.0004064000
    9        0.0000457500
   10       -0.0000124800
   11        0.0110541500
   12       -0.0000000000
   13       -0.0000000000
   14        0.0408228800
   15       -0.0000000000
   16        0.0000000000
   17        7.7036902000
   18       -0.0000000000
   19       -0.0000000000
   20        1.3210864200
   21       -0.0000000000
   22       -0.0000000000
   23       -0.0734708100
   24       -0.0208991500
   25       -0.0208991500
   26        0.0000000000
   27        0.0000000000
   28       -0.0000000000
   29       -0.0654857500
   30       -0.2243949300
   31       -0.2243949300
   32       -0.0000000000
   33       -0.0000000000
   34        0.0000000000
   35        0.2729042300
   36        0.5763907700
   37       -0.5488232400
   38       -0.4399223400
   39       -0.0171319300
   40        0.0022584100
   41        0.0004362800
   42       -0.0004064000
   43        0.0000457500
   44       -0.0000124800
   45       -0.0110541500
   46        0.0000000000
   47        0.0000000000
   48       -0.0408228800
   49        0.0000000000
   50       -0.0000000000
   51       -7.7036902000
   52        0.0000000000
   53        0.0000000000
   54       -1.3210864200
   55        0.0000000000
   56        0.0000000000
   57       -0.0734708100
   58       -0.0208991500
   59       -0.0208991500
   60       -0.0000000000
   61        0.0000000000
   62        0.0000000000
   63       -0.0654857500
   64       -0.2243949300
   65       -0.2243949300
   66       -0.0000000000
   67       -0.0000000000
   68       -0.0000000000
 Ene=          0.00750354
 Spin= Alpha
 Occup=        0.00000000
    1        0.0027632200
    2        0.0057646500
    3       -0.0617014600
    4        0.1325750600
    5        0.0107828700
    6        0.3195355400
    7        0.0826151700
    8       -0.0397082100
    9       -0.0001467100
   10       -0.0004598900
   11       -0.1466945200
   12        0.0000000000
   13       -0.0000000000
   14       -0.1414649400
   15        0.0000000000
   16       -0.0000000000
   17        0.7598426400
   18        0.0000000000
   19        0.0000000000
   20       -0.7157548000
   21        0.0000000000
   22        0.0000000000
   23       -1.6122269700
   24       -1.5971203600
   25       -1.5971203600
   26        0.0000000000
   27       -0.0000000000
   28        0.0000000000
   29       -3.1844406600
   30       -3.2007612100
   31       -3.2007612100
   32        0.0000000000
   33       -0.0000000000
   34       -0.0000000000
   35       -0.0027632200
   36       -0.0057646500
   37        0.0617014600
   38       -0.1325750600
   39       -0.0107828700
   40       -0.3195355400
   41       -0.0826151700
   42        0.0397082100
   43        0.0001467100
   44        0.0004598900
   45       -0.1466945200
   46       -0.0000000000
   47        0.0000000000
   48       -0.1414649400
   49       -0.0000000000
   50        0.0000000000
   51        0.7598426400
   52       -0.0000000000
   53       -0.0000000000
   54       -0.7157548000
   55       -0.0000000000
   56       -0.0000000000
   57        1.6122269700
   58        1.5971203600
   59        1.5971203600
   60        0.0000000000
   61       -0.0000000000
   62       -0.0000000000
   63        3.1844406600
   64        3.2007612100
   65        3.2007612100
   66        0.0000000000
   67       -0.0000000000
   68        0.0000000000
 Ene=          0.00853283
 Spin= Alpha
 Occup=        0.00000000
    1        0.0843619300
    2       -0.1460829100
    3        0.8888855700
    4       -1.4722005000
    5        0.6423580700
    6       -0.0493916800
    7        0.1158013300
    8       -0.0683855900
    9       -0.0008611300
   10       -0.0006310300
   11        0.0031744900
   12        0.0000000000
   13        0.0000000000
   14       -0.0078579600
   15        0.0000000000
   16       -0.0000000000
   17       -1.0503850500
   18        0.0000000000
   19       -0.0000000000
   20        0.6919058400
   21        0.0000000000
   22        0.0000000000
   23       -0.0080920600
   24       -0.0172003800
   25       -0.0172003800
   26        0.0000000000
   27       -0.0000000000
   28       -0.0000000000
   29       -0.0245314800
   30        0.0010855700
   31        0.0010855700
   32        0.0000000000
   33        0.0000000000
   34        0.0000000000
   35        0.0843619300
   36       -0.1460829100
   37        0.8888855700
   38       -1.4722005000
   39        0.6423580700
   40       -0.0493916800
   41        0.1158013300
   42       -0.0683855900
   43       -0.0008611300
   44       -0.0006310300
   45       -0.0031744900
   46       -0.0000000000
   47       -0.0000000000
   48        0.0078579600
   49       -0.0000000000
   50        0.0000000000
   51        1.0503850500
   52       -0.0000000000
   53        0.0000000000
   54       -0.6919058400
   55       -0.0000000000
   56       -0.0000000000
   57       -0.0080920600
   58       -0.0172003800
   59       -0.0172003800
   60       -0.0000000000
   61        0.0000000000
   62        0.0000000000
   63       -0.0245314800
   64        0.0010855700
   65        0.0010855700
   66       -0.0000000000
   67       -0.0000000000
   68       -0.0000000000
 Ene=          0.00870386
 Spin= Alpha
 Occup=        0.00000000
    1       -0.0000000000
    2        0.0000000000
    3        0.0000000000
    4       -0.0000000000
    5       -0.0000000000
    6        0.0000000000
    7       -0.0000000000
    8        0.0000000000
    9        0.0000000000
   10        0.0000000000
   11        0.0000000000
   12       -0.0223498600
   13       -0.0079023400
   14       -0.0000000000
   15        0.1026042600
   16        0.0362782500
   17        0.0000000000
   18       -0.5803766900
   19       -0.2052063900
   20       -0.0000000000
   21        0.6944311800
   22        0.2455331500
   23        0.0000000000
   24        0.0000000000
   25        0.0000000000
   26       -0.4088817300
   27       -0.1445701500
   28       -0.0000000000
   29        0.0000000000
   30        0.0000000000
   31        0.0000000000
   32        0.2474287400
   33        0.0874844900
   34        0.0000000000
   35        0.0000000000
   36       -0.0000000000
   37       -0.0000000000
   38        0.0000000000
   39       -0.0000000000
   40       -0.0000000000
   41       -0.0000000000
   42        0.0000000000
   43        0.0000000000
   44        0.0000000000
   45       -0.0000000000
   46       -0.0223498600
   47       -0.0079023400
   48        0.0000000000
   49        0.1026042600
   50        0.0362782500
   51       -0.0000000000
   52       -0.5803766900
   53       -0.2052063900
   54        0.0000000000
   55        0.6944311800
   56        0.2455331500
   57       -0.0000000000
   58       -0.0000000000
   59       -0.0000000000
   60        0.4088817300
   61        0.1445701500
   62        0.0000000000
   63       -0.0000000000
   64       -0.0000000000
   65       -0.0000000000
   66       -0.2474287400
   67       -0.0874844900
   68       -0.0000000000
 Ene=          0.00870386
 Spin= Alpha
 Occup=        0.00000000
    1       -0.0000000000
    2       -0.0000000000
    3       -0.0000000000
    4        0.0000000000
    5       -0.0000000000
    6        0.0000000000
    7       -0.0000000000
    8        0.0000000000
    9       -0.0000000000
   10       -0.0000000000
   11       -0.0000000000
   12       -0.0079023400
   13        0.0223498600
   14        0.0000000000
   15        0.0362782500
   16       -0.1026042600
   17       -0.0000000000
   18       -0.2052063900
   19        0.5803766900
   20       -0.0000000000
   21        0.2455331500
   22       -0.6944311800
   23        0.0000000000
   24        0.0000000000
   25        0.0000000000
   26       -0.1445701500
   27        0.4088817300
   28       -0.0000000000
   29        0.0000000000
   30        0.0000000000
   31        0.0000000000
   32        0.0874844900
   33       -0.2474287400
   34        0.0000000000
   35        0.0000000000
   36        0.0000000000
   37        0.0000000000
   38       -0.0000000000
   39       -0.0000000000
   40       -0.0000000000
   41       -0.0000000000
   42        0.0000000000
   43        0.0000000000
   44        0.0000000000
   45        0.0000000000
   46       -0.0079023400
   47        0.0223498600
   48       -0.0000000000
   49        0.0362782500
   50       -0.1026042600
   51       -0.0000000000
   52       -0.2052063900
   53        0.5803766900
   54        0.0000000000
   55        0.2455331500
   56       -0.6944311800
   57       -0.0000000000
   58       -0.0000000000
   59       -0.0000000000
   60        0.1445701500
   61       -0.4088817300
   62        0.0000000000
   63       -0.0000000000
   64       -0.0000000000
   65       -0.0000000000
   66       -0.0874844900
   67        0.2474287400
   68       -0.0000000000
 Ene=          0.01445220
 Spin= Alpha
 Occup=        0.00000000
    1        0.0000000000
    2        0.0000000000
    3       -0.0000000000
    4        0.0000000000
    5        0.0000000000
    6       -0.0000000000
    7        0.0000000000
    8       -0.0000000000
    9        0.0000000000
   10       -0.0000000000
   11        0.0000000000
   12       -0.0000168100
   13        0.0002928000
   14        0.0000000000
   15        0.0000138500
   16       -0.0002412700
   17        0.0000000000
   18       -0.6279773400
   19       10.9375312800
   20       -0.0000000000
   21        0.4138293200
   22       -7.2076981100
   23       -0.0000000000
   24        0.0000000000
   25        0.0000000000
   26        0.0020153100
   27       -0.0351008000
   28       -0.0000000000
   29        0.0000000000
   30       -0.0000000000
   31       -0.0000000000
   32       -0.0060942700
   33        0.1061444600
   34        0.0000000000
   35        0.0000000000
   36        0.0000000000
   37       -0.0000000000
   38       -0.0000000000
   39        0.0000000000
   40       -0.0000000000
   41        0.0000000000
   42       -0.0000000000
   43        0.0000000000
   44       -0.0000000000
   45       -0.0000000000
   46        0.0000168100
   47       -0.0002928000
   48       -0.0000000000
   49       -0.0000138500
   50        0.0002412700
   51       -0.0000000000
   52        0.6279773400
   53      -10.9375312800
   54        0.0000000000
   55       -0.4138293200
   56        7.2076981100
   57       -0.0000000000
   58       -0.0000000000
   59       -0.0000000000
   60        0.0020153100
   61       -0.0351008000
   62        0.0000000000
   63       -0.0000000000
   64       -0.0000000000
   65       -0.0000000000
   66       -0.0060942700
   67        0.1061444600
   68       -0.0000000000
 Ene=          0.01445220
 Spin= Alpha
 Occup=        0.00000000
    1       -0.0000000000
    2       -0.0000000000
    3        0.0000000000
    4        0.0000000000
    5       -0.0000000000
    6        0.0000000000
    7       -0.0000000000
    8        0.0000000000
    9       -0.0000000000
   10        0.0000000000
   11       -0.0000000000
   12       -0.0002928000
   13       -0.0000168100
   14        0.0000000000
   15        0.0002412700
   16        0.0000138500
   17       -0.0000000000
   18      -10.9375312800
   19       -0.6279773400
   20        0.0000000000
   21        7.2076981100
   22        0.4138293200
   23       -0.0000000000
   24       -0.0000000000
   25       -0.0000000000
   26        0.0351008000
   27        0.0020153100
   28       -0.0000000000
   29       -0.0000000000
   30       -0.0000000000
   31       -0.0000000000
   32       -0.1061444600
   33       -0.0060942700
   34       -0.0000000000
   35       -0.0000000000
   36       -0.0000000000
   37        0.0000000000
   38       -0.0000000000
   39       -0.0000000000
   40        0.0000000000
   41       -0.0000000000
   42        0.0000000000
   43       -0.0000000000
   44        0.0000000000
   45       -0.0000000000
   46        0.0002928000
   47        0.0000168100
   48       -0.0000000000
   49       -0.0002412700
   50       -0.0000138500
   51        0.0000000000
   52       10.9375312800
   53        0.6279773400
   54       -0.0000000000
   55       -7.2076981100
   56       -0.4138293200
   57        0.0000000000
   58        0.0000000000
   59        0.0000000000
   60        0.0351008000
   61        0.0020153100
   62        0.0000000000
   63        0.0000000000
   64        0.0000000000
   65        0.0000000000
   66       -0.1061444600
   67       -0.0060942700
   68        0.0000000000
 Ene=          0.01489460
 Spin= Alpha
 Occup=        0.00000000
    1        0.5074372100
    2        0.9017154600
    3       -1.3093302300
    4        0.0562792300
    5        0.5877519900
    6       -0.1021963900
    7        0.0590422500
    8       -0.0269084200
    9        0.0014479900
   10       -0.0004816200
   11        0.0197828500
   12       -0.0000000000
   13       -0.0000000000
   14        0.0677982900
   15       -0.0000000000
   16        0.0000000000
   17        9.0667944100
   18       -0.0000000000
   19       -0.0000000000
   20       -5.9348224200
   21        0.0000000000
   22        0.0000000000
   23       -0.1044175100
   24       -0.0571732800
   25       -0.0571732800
   26        0.0000000000
   27        0.0000000000
   28        0.0000000000
   29       -0.1950382500
   30       -0.3448078500
   31       -0.3448078500
   32       -0.0000000000
   33       -0.0000000000
   34        0.0000000000
   35        0.5074372100
   36        0.9017154600
   37       -1.3093302300
   38        0.0562792300
   39        0.5877519900
   40       -0.1021963900
   41        0.0590422500
   42       -0.0269084200
   43        0.0014479900
   44       -0.0004816200
   45       -0.0197828500
   46        0.0000000000
   47        0.0000000000
   48       -0.0677982900
   49        0.0000000000
   50       -0.0000000000
   51       -9.0667944100
   52        0.0000000000
   53        0.0000000000
   54        5.9348224200
   55       -0.0000000000
   56       -0.0000000000
   57       -0.1044175100
   58       -0.0571732800
   59       -0.0571732800
   60       -0.0000000000
   61       -0.0000000000
   62       -0.0000000000
   63       -0.1950382500
   64       -0.3448078500
   65       -0.3448078500
   66        0.0000000000
   67        0.0000000000
   68       -0.0000000000
 Ene=          0.01896610
 Spin= Alpha
 Occup=        0.00000000
    1       -0.0025670500
    2       -0.0004870500
    3        0.0017813300
    4        0.0085286100
    5       -4.1678228200
    6       -0.1976833500
    7       -0.2319398000
    8        0.0920016200
    9       -0.0042179300
   10        0.0016496300
   11        0.1350099000
   12       -0.0000000000
   13        0.0000000000
   14       -0.0184279900
   15       -0.0000000000
   16        0.0000000000