[Molden Format]
[Atoms] AU
E+       1       4     0.00000000     0.00000000     0.00000000
E+       2       4    10.80000000     0.00000000     0.00000000
[GTO]
  1 0
s  1 1.00
   1.0000000000E-04   1.0000000000E+00
s  1 1.00
   3.0000000000E-04   1.0000000000E+00
s  1 1.00
   9.0000000000E-04   1.0000000000E+00
s  1 1.00
   2.7000000000E-03   1.0000000000E+00
s  1 1.00
   8.1000000000E-03   1.0000000000E+00
s  1 1.00
   2.4300000000E-02   1.0000000000E+00
s  1 1.00
   7.2900000000E-02   1.0000000000E+00
s  1 1.00
   2.1870000000E-01   1.0000000000E+00
s  1 1.00
   6.5610000000E-01   1.0000000000E+00
s  1 1.00
   1.9683000000E+00   1.0000000000E+00
p  1 1.00
   1.0000000000E-04   1.0000000000E+00
p  1 1.00
   3.0000000000E-04   1.0000000000E+00
p  1 1.00
   9.0000000000E-04   1.0000000000E+00
p  1 1.00
   2.7000000000E-03   1.0000000000E+00
d  1 1.00
   1.0000000000E-04   1.0000000000E+00
d  1 1.00
   3.0000000000E-04   1.0000000000E+00
 
  2 0
s  1 1.00
   1.0000000000E-04   1.0000000000E+00
s  1 1.00
   3.0000000000E-04   1.0000000000E+00
s  1 1.00
   9.0000000000E-04   1.0000000000E+00
s  1 1.00
   2.7000000000E-03   1.0000000000E+00
s  1 1.00
   8.1000000000E-03   1.0000000000E+00
s  1 1.00
   2.4300000000E-02   1.0000000000E+00
s  1 1.00
   7.2900000000E-02   1.0000000000E+00
s  1 1.00
   2.1870000000E-01   1.0000000000E+00
s  1 1.00
   6.5610000000E-01   1.0000000000E+00
s  1 1.00
   1.9683000000E+00   1.0000000000E+00
p  1 1.00
   1.0000000000E-04   1.0000000000E+00
p  1 1.00
   3.0000000000E-04   1.0000000000E+00
p  1 1.00
   9.0000000000E-04   1.0000000000E+00
p  1 1.00
   2.7000000000E-03   1.0000000000E+00
d  1 1.00
   1.0000000000E-04   1.0000000000E+00
d  1 1.00
   3.0000000000E-04   1.0000000000E+00
 
 
[MO]
Ene=    -9.06585E-03
Spin= Alpha
Occup=   1.0000000000
   1      -0.00910754
   2      -0.12359295
   3       0.02567188
   4       0.08845912
   5       0.23833809
   6       0.24103173
   7       0.12389879
   8      -0.10797195
   9      -0.00823348
  10       0.00024202
  11      -0.00736490
  12       0.00000000
  13      -0.00000000
  14       0.58457129
  15      -0.00000000
  16       0.00000000
  17      -0.02498845
  18       0.00000000
  19      -0.00000000
  20       0.03038670
  21      -0.00000000
  22       0.00000000
  23       0.00078650
  24       0.00132391
  25       0.00132391
  26       0.00000000
  27      -0.00000000
  28      -0.00000000
  29       0.09986997
  30       0.00575484
  31       0.00575484
  32      -0.00000000
  33       0.00000000
  34      -0.00000000
  35      -0.00910754
  36      -0.12359295
  37       0.02567188
  38       0.08845912
  39       0.23833809
  40       0.24103173
  41       0.12389879
  42      -0.10797195
  43      -0.00823348
  44       0.00024202
  45       0.00736490
  46      -0.00000000
  47       0.00000000
  48      -0.58457129
  49       0.00000000
  50      -0.00000000
  51       0.02498845
  52      -0.00000000
  53       0.00000000
  54      -0.03038670
  55       0.00000000
  56      -0.00000000
  57       0.00078650
  58       0.00132391
  59       0.00132391
  60       0.00000000
  61      -0.00000000
  62       0.00000000
  63       0.09986997
  64       0.00575484
  65       0.00575484
  66      -0.00000000
  67       0.00000000
  68       0.00000000
Ene=     2.05639E-03
Spin= Alpha
Occup=   0.0000000000
   1       0.00501001
   2       0.00251979
   3     -13.26401028
   4       1.16281727
   5      -0.38714184
   6      -0.10970427
   7      -0.07403183
   8       0.06102543
   9       0.00434989
  10      -0.00008378
  11      -0.08178000
  12      -0.00000000
  13       0.00000000
  14      -0.04531515
  15       0.00000000
  16      -0.00000000
  17      -1.80752439
  18      -0.00000000
  19       0.00000000
  20       0.42985797
  21       0.00000000
  22      -0.00000000
  23      -0.25310973
  24      -0.30928936
  25      -0.30928936
  26      -0.00000000
  27       0.00000000
  28       0.00000000
  29      -0.54179169
  30      -0.45015172
  31      -0.45015172
  32       0.00000000
  33      -0.00000000
  34      -0.00000000
  35      -0.00501001
  36      -0.00251980
  37      13.26401028
  38      -1.16281727
  39       0.38714184
  40       0.10970427
  41       0.07403183
  42      -0.06102543
  43      -0.00434989
  44       0.00008378
  45      -0.08178000
  46       0.00000000
  47      -0.00000000
  48      -0.04531515
  49      -0.00000000
  50       0.00000000
  51      -1.80752439
  52       0.00000000
  53      -0.00000000
  54       0.42985797
  55      -0.00000000
  56       0.00000000
  57       0.25310973
  58       0.30928936
  59       0.30928936
  60      -0.00000000
  61       0.00000000
  62      -0.00000000
  63       0.54179169
  64       0.45015172
  65       0.45015172
  66       0.00000000
  67      -0.00000000
  68       0.00000000
Ene=     2.53866E-03
Spin= Alpha
Occup=   0.0000000000
   1      -0.16012186
   2      -0.08135163
   3       1.18274414
   4      -0.68699545
   5       0.12899934
   6      -0.12425086
   7      -0.00402897
   8       0.01569724
   9       0.00317871
  10      -0.00031667
  11      -0.00479702
  12      -0.00000000
  13       0.00000000
  14      -1.36395426
  15       0.00000000
  16      -0.00000000
  17       0.17907028
  18      -0.00000000
  19       0.00000000
  20      -0.01969811
  21       0.00000000
  22      -0.00000000
  23       0.02130056
  24       0.02255091
  25       0.02255091
  26      -0.00000000
  27       0.00000000
  28       0.00000000
  29      -0.11499247
  30       0.10199720
  31       0.10199720
  32       0.00000000
  33      -0.00000000
  34      -0.00000000
  35      -0.16012186
  36      -0.08135163
  37       1.18274414
  38      -0.68699545
  39       0.12899934
  40      -0.12425086
  41      -0.00402897
  42       0.01569724
  43       0.00317871
  44      -0.00031667
  45       0.00479702
  46       0.00000000
  47      -0.00000000
  48       1.36395426
  49      -0.00000000
  50       0.00000000
  51      -0.17907028
  52       0.00000000
  53      -0.00000000
  54       0.01969811
  55      -0.00000000
  56       0.00000000
  57       0.02130056
  58       0.02255091
  59       0.02255091
  60      -0.00000000
  61       0.00000000
  62      -0.00000000
  63      -0.11499247
  64       0.10199720
  65       0.10199720
  66       0.00000000
  67      -0.00000000
  68       0.00000000
Ene=     3.55228E-03
Spin= Alpha
Occup=   0.0000000000
   1      -0.00000000
   2      -0.00000000
   3      -0.00000000
   4       0.00000000
   5      -0.00000000
   6       0.00000000
   7       0.00000000
   8      -0.00000000
   9      -0.00000000
  10       0.00000000
  11      -0.00000000
  12      -0.02636125
  13       0.00850291
  14       0.00000000
  15       0.11426147
  16      -0.03685541
  17      -0.00000000
  18      -0.53413671
  19       0.17228752
  20       0.00000000
  21      -0.02761213
  22       0.00890638
  23       0.00000000
  24       0.00000000
  25       0.00000000
  26      -0.14104410
  27       0.04549423
  28      -0.00000000
  29       0.00000000
  30       0.00000000
  31       0.00000000
  32       0.07634030
  33      -0.02462381
  34       0.00000000
  35      -0.00000000
  36      -0.00000000
  37       0.00000000
  38      -0.00000000
  39       0.00000000
  40      -0.00000000
  41      -0.00000000
  42       0.00000000
  43       0.00000000
  44      -0.00000000
  45       0.00000000
  46      -0.02636125
  47       0.00850291
  48      -0.00000000
  49       0.11426147
  50      -0.03685541
  51      -0.00000000
  52      -0.53413671
  53       0.17228752
  54       0.00000000
  55      -0.02761213
  56       0.00890638
  57      -0.00000000
  58      -0.00000000
  59      -0.00000000
  60       0.14104410
  61      -0.04549423
  62       0.00000000
  63       0.00000000
  64      -0.00000000
  65      -0.00000000
  66      -0.07634030
  67       0.02462381
  68      -0.00000000
Ene=     3.55228E-03
Spin= Alpha
Occup=   0.0000000000
   1       0.00000000
   2       0.00000000
   3      -0.00000000
   4       0.00000000
   5       0.00000000
   6       0.00000000
   7       0.00000000
   8      -0.00000000
   9      -0.00000000
  10       0.00000000
  11       0.00000000
  12       0.00850291
  13       0.02636125
  14      -0.00000000
  15      -0.03685541
  16      -0.11426147
  17      -0.00000000
  18       0.17228752
  19       0.53413671
  20      -0.00000000
  21       0.00890638
  22       0.02761213
  23       0.00000000
  24      -0.00000000
  25      -0.00000000
  26       0.04549423
  27       0.14104410
  28       0.00000000
  29      -0.00000000
  30       0.00000000
  31       0.00000000
  32      -0.02462381
  33      -0.07634030
  34      -0.00000000
  35       0.00000000
  36       0.00000000
  37       0.00000000
  38      -0.00000000
  39       0.00000000
  40      -0.00000000
  41       0.00000000
  42       0.00000000
  43       0.00000000
  44      -0.00000000
  45      -0.00000000
  46       0.00850291
  47       0.02636125
  48       0.00000000
  49      -0.03685541
  50      -0.11426147
  51      -0.00000000
  52       0.17228752
  53       0.53413671
  54       0.00000000
  55       0.00890638
  56       0.02761213
  57      -0.00000000
  58      -0.00000000
  59      -0.00000000
  60      -0.04549423
  61      -0.14104410
  62      -0.00000000
  63      -0.00000000
  64      -0.00000000
  65      -0.00000000
  66       0.02462381
  67       0.07634030
  68       0.00000000
Ene=     5.38744E-03
Spin= Alpha
Occup=   0.0000000000
   1      -0.00970497
   2      -0.00501186
   3      27.91111142
   4      -2.56226129
   5      -0.23078817
   6      -0.16914433
   7      -0.06685647
   8       0.06238479
   9       0.00559011
  10      -0.00024470
  11       0.15799050
  12       0.00000000
  13      -0.00000000
  14       0.09648479
  15      -0.00000000
  16       0.00000000
  17       3.78155901
  18       0.00000000
  19      -0.00000000
  20      -0.24887239
  21      -0.00000000
  22       0.00000000
  23       0.48814440
  24       0.59712159
  25       0.59712159
  26       0.00000000
  27      -0.00000000
  28      -0.00000000
  29       1.06276119
  30       0.88391161
  31       0.88391161
  32      -0.00000000
  33       0.00000000
  34       0.00000000
  35       0.00970497
  36       0.00501186
  37     -27.91111142
  38       2.56226129
  39       0.23078817
  40       0.16914433
  41       0.06685647
  42      -0.06238479
  43      -0.00559011
  44       0.00024470
  45       0.15799050
  46      -0.00000000
  47       0.00000000
  48       0.09648480
  49       0.00000000
  50      -0.00000000
  51       3.78155901
  52      -0.00000000
  53       0.00000000
  54      -0.24887239
  55       0.00000000
  56      -0.00000000
  57      -0.48814440
  58      -0.59712159
  59      -0.59712159
  60       0.00000000
  61      -0.00000000
  62       0.00000000
  63      -1.06276119
  64      -0.88391161
  65      -0.88391161
  66      -0.00000000
  67       0.00000000
  68      -0.00000000
Ene=     6.67654E-03
Spin= Alpha
Occup=   0.0000000000
   1       0.31114304
   2       6.43079945
   3      -0.41530438
   4      -0.59610629
   5       0.07710438
   6      -0.02084363
   7       0.01040073
   8      -0.00469643
   9       0.00032296
  10      -0.00008799
  11       0.37527198
  12      -0.00000000
  13       0.00000000
  14     -31.51429147
  15       0.00000000
  16      -0.00000000
  17       2.32662526
  18      -0.00000000
  19       0.00000000
  20       0.52919327
  21      -0.00000000
  22       0.00000000
  23      -0.02351700
  24      -0.04338902
  25      -0.04338902
  26      -0.00000000
  27       0.00000000
  28       0.00000000
  29      -5.26640784
  30      -0.22136965
  31      -0.22136965
  32       0.00000000
  33      -0.00000000
  34      -0.00000000
  35       0.31114304
  36       6.43079945
  37      -0.41530437
  38      -0.59610629
  39       0.07710438
  40      -0.02084363
  41       0.01040073
  42      -0.00469643
  43       0.00032296
  44      -0.00008799
  45      -0.37527198
  46       0.00000000
  47      -0.00000000
  48      31.51429147
  49      -0.00000000
  50       0.00000000
  51      -2.32662526
  52       0.00000000
  53      -0.00000000
  54      -0.52919327
  55       0.00000000
  56      -0.00000000
  57      -0.02351700
  58      -0.04338902
  59      -0.04338902
  60      -0.00000000
  61       0.00000000
  62      -0.00000000
  63      -5.26640784
  64      -0.22136965
  65      -0.22136965
  66       0.00000000
  67      -0.00000000
  68       0.00000000
Ene=     6.79385E-03
Spin= Alpha
Occup=   0.0000000000
   1      -0.00000000
   2      -0.00000000
   3      -0.00000000
   4       0.00000000
   5      -0.00000000
   6       0.00000000
   7      -0.00000000
   8       0.00000000
   9      -0.00000000
  10       0.00000000
  11      -0.00000000
  12      -0.00092415
  13       0.00074038
  14       0.00000000
  15       0.00245517
  16      -0.00196696
  17      -0.00000000
  18      -2.03502264
  19       1.63036110
  20      -0.00000000
  21      -0.50535874
  22       0.40486883
  23       0.00000000
  24       0.00000000
  25       0.00000000
  26       0.02625661
  27      -0.02103552
  28      -0.00000000
  29       0.00000000
  30       0.00000000
  31       0.00000000
  32      -0.07764566
  33       0.06220593
  34       0.00000000
  35      -0.00000000
  36      -0.00000000
  37       0.00000000
  38       0.00000000
  39      -0.00000000
  40       0.00000000
  41      -0.00000000
  42       0.00000000
  43      -0.00000000
  44       0.00000000
  45       0.00000000
  46       0.00092415
  47      -0.00074038
  48      -0.00000000
  49      -0.00245517
  50       0.00196696
  51       0.00000000
  52       2.03502264
  53      -1.63036110
  54       0.00000000
  55       0.50535874
  56      -0.40486883
  57      -0.00000000
  58      -0.00000000
  59      -0.00000000
  60       0.02625661
  61      -0.02103552
  62       0.00000000
  63       0.00000000
  64      -0.00000000
  65      -0.00000000
  66      -0.07764566
  67       0.06220593
  68      -0.00000000
Ene=     6.79385E-03
Spin= Alpha
Occup=   0.0000000000
   1       0.00000000
   2       0.00000000
   3      -0.00000000
   4      -0.00000000
   5       0.00000000
   6      -0.00000000
   7       0.00000000
   8      -0.00000000
   9       0.00000000
  10      -0.00000000
  11       0.00000000
  12       0.00074038
  13       0.00092415
  14      -0.00000000
  15      -0.00196696
  16      -0.00245517
  17       0.00000000
  18       1.63036110
  19       2.03502264
  20       0.00000000
  21       0.40486883
  22       0.50535874
  23      -0.00000000
  24      -0.00000000
  25      -0.00000000
  26      -0.02103552
  27      -0.02625661
  28      -0.00000000
  29      -0.00000000
  30      -0.00000000
  31      -0.00000000
  32       0.06220593
  33       0.07764566
  34       0.00000000
  35       0.00000000
  36       0.00000000
  37       0.00000000
  38      -0.00000000
  39       0.00000000
  40      -0.00000000
  41       0.00000000
  42      -0.00000000
  43       0.00000000
  44      -0.00000000
  45      -0.00000000
  46      -0.00074038
  47      -0.00092415
  48       0.00000000
  49       0.00196696
  50       0.00245517
  51      -0.00000000
  52      -1.63036110
  53      -2.03502264
  54      -0.00000000
  55      -0.40486883
  56      -0.50535874
  57      -0.00000000
  58      -0.00000000
  59      -0.00000000
  60      -0.02103552
  61      -0.02625661
  62       0.00000000
  63      -0.00000000
  64      -0.00000000
  65      -0.00000000
  66       0.06220593
  67       0.07764566
  68      -0.00000000
Ene=     9.15271E-03
Spin= Alpha
Occup=   0.0000000000
   1       0.00000000
   2       0.00000000
   3       0.00000000
   4       0.00000000
   5      -0.00000000
   6       0.00000000
   7      -0.00000000
   8      -0.00000000
   9      -0.00000000
  10       0.00000000
  11       0.00000000
  12      -0.02696613
  13      -0.00522524
  14      -0.00000000
  15       0.11807305
  16       0.02287908
  17       0.00000000
  18      -0.64447343
  19      -0.12487999
  20       0.00000000
  21       0.75736384
  22       0.14675483
  23      -0.00000000
  24      -0.00000000
  25      -0.00000000
  26      -0.13060271
  27      -0.02530696
  28      -0.00000000
  29      -0.00000000
  30      -0.00000000
  31      -0.00000000
  32       0.06530725
  33       0.01265462
  34       0.00000000
  35       0.00000000
  36       0.00000000
  37      -0.00000000
  38      -0.00000000
  39       0.00000000
  40      -0.00000000
  41       0.00000000
  42       0.00000000
  43       0.00000000
  44       0.00000000
  45      -0.00000000
  46      -0.02696613
  47      -0.00522524
  48       0.00000000
  49       0.11807305
  50       0.02287908
  51       0.00000000
  52      -0.64447343
  53      -0.12487999
  54       0.00000000
  55       0.75736384
  56       0.14675483
  57       0.00000000
  58       0.00000000
  59       0.00000000
  60       0.13060271
  61       0.02530696
  62       0.00000000
  63      -0.00000000
  64       0.00000000
  65       0.00000000
  66      -0.06530725
  67      -0.01265462
  68      -0.00000000
Ene=     9.15271E-03
Spin= Alpha
Occup=   0.0000000000
   1       0.00000000
   2       0.00000000
   3       0.00000000
   4       0.00000000
   5      -0.00000000
   6       0.00000000
   7       0.00000000
   8      -0.00000000
   9      -0.00000000
  10       0.00000000
  11       0.00000000
  12      -0.00522524
  13       0.02696613
  14      -0.00000000
  15       0.02287908
  16      -0.11807305
  17       0.00000000
  18      -0.12487999
  19       0.64447343
  20       0.00000000
  21       0.14675483
  22      -0.75736384
  23      -0.00000000
  24      -0.00000000
  25       0.00000000
  26      -0.02530696
  27       0.13060271
  28      -0.00000000
  29      -0.00000000
  30      -0.00000000
  31      -0.00000000
  32       0.01265462
  33      -0.06530725
  34       0.00000000
  35       0.00000000
  36       0.00000000
  37      -0.00000000
  38      -0.00000000
  39       0.00000000
  40      -0.00000000
  41      -0.00000000
  42       0.00000000
  43       0.00000000
  44       0.00000000
  45      -0.00000000
  46      -0.00522524
  47       0.02696613
  48       0.00000000
  49       0.02287908
  50      -0.11807305
  51       0.00000000
  52      -0.12487999
  53       0.64447343
  54       0.00000000
  55       0.14675483
  56      -0.75736384
  57       0.00000000
  58      -0.00000000
  59      -0.00000000
  60       0.02530696
  61      -0.13060271
  62       0.00000000
  63      -0.00000000
  64       0.00000000
  65       0.00000000
  66      -0.01265462
  67       0.06530725
  68      -0.00000000
Ene=     1.04702E-02
Spin= Alpha
Occup=   0.0000000000
   1       0.00362039
   2       0.07466555
   3     129.68422170
   4      22.37391778
   5      -0.21123190
   6       0.06969438
   7       0.00354708
   8      -0.00927749
   9      -0.00160128
  10       0.00014408
  11      -0.07814567
  12       0.00000000
  13      -0.00000000
  14      -0.29273992
  15      -0.00000000
  16       0.00000000
  17      21.26329776
  18       0.00000000
  19      -0.00000000
  20       7.35287191
  21      -0.00000000
  22       0.00000000
  23      -0.56302288
  24      -0.01966122
  25      -0.01966122
  26       0.00000000
  27      -0.00000000
  28      -0.00000000
  29      -0.58785333
  30      -1.41305379
  31      -1.41305379
  32      -0.00000000
  33       0.00000000
  34       0.00000000
  35      -0.00362039
  36      -0.07466555
  37    -129.68422170
  38     -22.37391778
  39       0.21123190
  40      -0.06969438
  41      -0.00354709
  42       0.00927749
  43       0.00160128
  44      -0.00014408
  45      -0.07814567
  46      -0.00000000
  47       0.00000000
  48      -0.29273990
  49       0.00000000
  50      -0.00000000
  51      21.26329776
  52      -0.00000000
  53       0.00000000
  54       7.35287191
  55       0.00000000
  56      -0.00000000
  57       0.56302288
  58       0.01966122
  59       0.01966122
  60       0.00000000
  61      -0.00000000
  62       0.00000000
  63       0.58785333
  64       1.41305379
  65       1.41305379
  66      -0.00000000
  67       0.00000000
  68      -0.00000000
Ene=     1.09265E-02
Spin= Alpha
Occup=   0.0000000000
   1      -0.11215903
   2       2.68705293
   3      -0.87954769
   4       1.60899345
   5      -0.96778514
   6       0.06583110
   7      -0.09900729
   8       0.05898743
   9       0.00036164
  10       0.00047602
  11       0.13154920
  12      -0.00000000
  13       0.00000000
  14     -13.60984273
  15       0.00000000
  16      -0.00000000
  17       0.61840301
  18      -0.00000000
  19       0.00000000
  20      -0.21033578
  21       0.00000000
  22      -0.00000000
  23       0.02874317
  24       0.01766537
  25       0.01766537
  26      -0.00000000
  27       0.00000000
  28      -0.00000000
  29      -2.19007011
  30       0.00659908
  31       0.00659908
  32       0.00000000
  33      -0.00000000
  34       0.00000000
  35      -0.11215903
  36       2.68705293
  37      -0.87954767
  38       1.60899346
  39      -0.96778514
  40       0.06583110
  41      -0.09900729
  42       0.05898743
  43       0.00036164
  44       0.00047602
  45      -0.13154920
  46       0.00000000
  47      -0.00000000
  48      13.60984273
  49      -0.00000000
  50       0.00000000
  51      -0.61840301
  52       0.00000000
  53      -0.00000000
  54       0.21033578
  55      -0.00000000
  56       0.00000000
  57       0.02874317
  58       0.01766537
  59       0.01766537
  60      -0.00000000
  61       0.00000000
  62       0.00000000
  63      -2.19007011
  64       0.00659908
  65       0.00659908
  66       0.00000000
  67      -0.00000000
  68      -0.00000000
Ene=     1.46827E-02
Spin= Alpha
Occup=   0.0000000000
   1      -0.00000000
   2      -0.00000000
   3       0.00000000
   4      -0.00000000
   5      -0.00000000
   6       0.00000000
   7      -0.00000000
   8       0.00000000
   9       0.00000000
  10       0.00000000
  11      -0.00000000
  12       0.00002752
  13      -0.00104105
  14       0.00000000
  15      -0.00002104
  16       0.00079607
  17       0.00000000
  18       0.09929305
  19      -3.75596125
  20      -0.00000000
  21      -0.06157535
  22       2.32921257
  23      -0.00000000
  24      -0.00000000
  25      -0.00000000
  26      -0.00103446
  27       0.03913064
  28       0.00000000
  29       0.00000000
  30      -0.00000000
  31      -0.00000000
  32       0.00312639
  33      -0.11826223
  34      -0.00000000
  35      -0.00000000
  36      -0.00000000
  37      -0.00000000
  38       0.00000000
  39      -0.00000000
  40       0.00000000
  41      -0.00000000
  42      -0.00000000
  43      -0.00000000
  44       0.00000000
  45       0.00000000
  46      -0.00002752
  47       0.00104105
  48      -0.00000000
  49       0.00002104
  50      -0.00079607
  51       0.00000000
  52      -0.09929305
  53       3.75596125
  54      -0.00000000
  55       0.06157535
  56      -2.32921257
  57       0.00000000
  58       0.00000000
  59       0.00000000
  60      -0.00103446
  61       0.03913064
  62      -0.00000000
  63       0.00000000
  64       0.00000000
  65       0.00000000
  66       0.00312639
  67      -0.11826223
  68       0.00000000
Ene=     1.46827E-02
Spin= Alpha
Occup=   0.0000000000
   1      -0.00000000
   2      -0.00000000
   3       0.00000000
   4      -0.00000000
   5      -0.00000000
   6       0.00000000
   7      -0.00000000
   8       0.00000000
   9      -0.00000000
  10       0.00000000
  11      -0.00000000
  12       0.00104105
  13       0.00002752
  14       0.00000000
  15      -0.00079607
  16      -0.00002104
  17      -0.00000000
  18       3.75596125
  19       0.09929305
  20       0.00000000
  21      -2.32921257
  22      -0.06157535
  23      -0.00000000
  24      -0.00000000
  25      -0.00000000
  26      -0.03913064
  27      -0.00103446
  28      -0.00000000
  29       0.00000000
  30      -0.00000000
  31      -0.00000000
  32       0.11826223
  33       0.00312639
  34      -0.00000000
  35      -0.00000000
  36      -0.00000000
  37      -0.00000000
  38       0.00000000
  39      -0.00000000
  40       0.00000000
  41      -0.00000000
  42       0.00000000
  43      -0.00000000
  44       0.00000000
  45       0.00000000
  46      -0.00104105
  47      -0.00002752
  48      -0.00000000
  49       0.00079607
  50       0.00002104
  51       0.00000000
  52      -3.75596125
  53      -0.09929305
  54      -0.00000000
  55       2.32921257
  56       0.06157535
  57       0.00000000
  58       0.00000000
  59       0.00000000
  60      -0.03913064
  61      -0.00103446
  62       0.00000000
  63       0.00000000
  64       0.00000000
  65       0.00000000
  66       0.11826223
  67       0.00312639
  68       0.00000000
Ene=     1.48245E-02
Spin= Alpha
Occup=   0.0000000000
   1       0.59511543
   2       6.37924199
   3      -1.36678567
   4      -0.03789600
   5       0.64159328
   6      -0.08566708
   7       0.04879929
   8      -0.02362862
   9       0.00110136
  10      -0.00036924
  11       0.38099619
  12      -0.00000000
  13       0.00000000
  14     -28.82290683
  15       0.00000000
  16      -0.00000000
  17       3.14842974
  18       0.00000000
  19      -0.00000000
  20      -1.85462397
  21      -0.00000000
  22       0.00000000
  23      -0.06927413
  24      -0.08273104
  25      -0.08273104
  26      -0.00000000
  27       0.00000000
  28       0.00000000
  29      -4.97155341
  30      -0.38705955
  31      -0.38705955
  32       0.00000000
  33      -0.00000000
  34      -0.00000000
  35       0.59511544
  36       6.37924199
  37      -1.36678566
  38      -0.03789600
  39       0.64159328
  40      -0.08566708
  41       0.04879929
  42      -0.02362862
  43       0.00110136
  44      -0.00036924
  45      -0.38099619
  46       0.00000000
  47      -0.00000000
  48      28.82290683
  49      -0.00000000
  50       0.00000000
  51      -3.14842975
  52      -0.00000000
  53       0.00000000
  54       1.85462397
  55       0.00000000
  56      -0.00000000
  57      -0.06927413
  58      -0.08273104
  59      -0.08273104
  60      -0.00000000
  61       0.00000000
  62      -0.00000000
  63      -4.97155341
  64      -0.38705955
  65      -0.38705955
  66       0.00000000
  67      -0.00000000
  68       0.00000000
Ene=     1.52775E-02
Spin= Alpha
Occup=   0.0000000000
   1      -0.00859281
   2      -0.06192429
   3     -69.14859427
   4       1.04286399
   5       1.31168281
   6      -0.02331153
   7       0.12657277
   8      -0.07910410
   9      -0.00153999
  10      -0.00048879
  11       0.15296272
  12      -0.00000000
  13       0.00000000
  14       0.33932336
  15       0.00000000
  16      -0.00000000
  17     -12.39983162
  18       0.00000000
  19      -0.00000000
  20       1.34882748
  21      -0.00000000
  22       0.00000000
  23       0.69078753
  24       0.36770074
  25       0.36770074
  26      -0.00000000
  27       0.00000000
  28       0.00000000
  29       1.20727008
  30       1.67210051
  31       1.67210051
  32       0.00000000
  33      -0.00000000
  34      -0.00000000
  35       0.00859281
  36       0.06192429
  37      69.14859427
  38      -1.04286399
  39      -1.31168281
  40       0.02331153
  41      -0.12657277
  42       0.07910410
  43       0.00153999
  44       0.00048879
  45       0.15296272
  46       0.00000000
  47      -0.00000000
  48       0.33932337
  49      -0.00000000
  50       0.00000000
  51     -12.39983162
  52      -0.00000000
  53       0.00000000
  54       1.34882748
  55       0.00000000
  56      -0.00000000
  57      -0.69078753
  58      -0.36770074
  59      -0.36770074
  60      -0.00000000
  61       0.00000000
  62      -0.00000000
  63      -1.20727008
  64      -1.67210051
  65      -1.67210051
  66       0.00000000
  67      -0.00000000
  68       0.00000000
Ene=     2.18068E-02
Spin= Alpha
Occup=   0.0000000000
   1       0.02222928
   2       0.14965874
   3     209.79057991
   4     -37.66508596
   5       1.61481096
   6      -0.11902055
   7       0.09921926
   8      -0.05228428
   9       0.00082915
  10      -0.00058570
  11      -0.40231343
  12       0.00000000
  13      -0.00000000
  14      -0.66610948
  15      -0.00000000
  16       0.00000000
  17      35.74085524
  18       0.00000000
  19      -0.00000000
  20     -10.68882031
  21       0.00000000
  22       0.00000000
  23      -1.81178266
  24      -1.10779950
  25      -1.10779950
  26       0.00000000
  27      -0.00000000
  28      -0.00000000
  29      -2.79921809
  30      -3.83582324
  31      -3.83582324
  32      -0.00000000
  33       0.00000000
  34       0.00000000
  35      -0.02222928
  36      -0.14965874
  37    -209.79057991
  38      37.66508596
  39      -1.61481096
  40       0.11902055
  41      -0.09921926
  42       0.05228428
  43      -0.00082915
  44       0.00058570
  45      -0.40231343
  46      -0.00000000
  47       0.00000000
  48      -0.66610950
  49       0.00000000
  50      -0.00000000
  51      35.74085524
  52      -0.00000000
  53       0.00000000
  54     -10.68882031
  55      -0.00000000
  56      -0.00000000
  57       1.81178266
  58       1.10779950
  59       1.10779950
  60       0.00000000
  61      -0.00000000
  62       0.00000000
  63       2.79921810
  64       3.83582324
  65       3.83582324
  66      -0.00000000
  67       0.00000000
  68      -0.00000000
Ene=     2.64571E-02
Spin= Alpha
Occup=   0.0000000000
   1      -2.96643092
   2       3.40011960
   3       4.16876811
   4      -1.91032992
   5       0.43073456
   6       0.13966748
   7       0.01049787
   8      -0.02152576
   9      -0.00365510
  10       0.00032155
  11       0.01106445
  12      -0.00000000