 Molden2AIM, Version 3.1.0 (02/25/2015)           Time: Thu Oct 17 19:52:41 2024
GAUSSIAN             68 MOL ORBITALS     68 PRIMITIVES        2 NUCLEI
  Be   1    (CENTRE  1)   0.00000000  0.00000000  0.00000000  CHARGE =  4.0
  Be   2    (CENTRE  2)  10.20000000  0.00000000  0.00000000  CHARGE =  4.0
CENTRE ASSIGNMENTS    1  1  1  1  1  1  1  1  1  1  1  1  1  1  1  1  1  1  1  1
CENTRE ASSIGNMENTS    1  1  1  1  1  1  1  1  1  1  1  1  1  1  2  2  2  2  2  2
CENTRE ASSIGNMENTS    2  2  2  2  2  2  2  2  2  2  2  2  2  2  2  2  2  2  2  2
CENTRE ASSIGNMENTS    2  2  2  2  2  2  2  2
TYPE ASSIGNMENTS      1  1  1  1  1  1  1  1  1  1  2  3  4  2  3  4  2  3  4  2
TYPE ASSIGNMENTS      3  4  5  6  7  8  9 10  5  6  7  8  9 10  1  1  1  1  1  1
TYPE ASSIGNMENTS      1  1  1  1  2  3  4  2  3  4  2  3  4  2  3  4  5  6  7  8
TYPE ASSIGNMENTS      9 10  5  6  7  8  9 10
EXPONENTS  0.1000000D-03 0.3000000D-03 0.9000000D-03 0.2700000D-02 0.8100000D-02
EXPONENTS  0.2430000D-01 0.7290000D-01 0.2187000D+00 0.6561000D+00 0.1968300D+01
EXPONENTS  0.1000000D-03 0.1000000D-03 0.1000000D-03 0.3000000D-03 0.3000000D-03
EXPONENTS  0.3000000D-03 0.9000000D-03 0.9000000D-03 0.9000000D-03 0.2700000D-02
EXPONENTS  0.2700000D-02 0.2700000D-02 0.1000000D-03 0.1000000D-03 0.1000000D-03
EXPONENTS  0.1000000D-03 0.1000000D-03 0.1000000D-03 0.3000000D-03 0.3000000D-03
EXPONENTS  0.3000000D-03 0.3000000D-03 0.3000000D-03 0.3000000D-03 0.1000000D-03
EXPONENTS  0.3000000D-03 0.9000000D-03 0.2700000D-02 0.8100000D-02 0.2430000D-01
EXPONENTS  0.7290000D-01 0.2187000D+00 0.6561000D+00 0.1968300D+01 0.1000000D-03
EXPONENTS  0.1000000D-03 0.1000000D-03 0.3000000D-03 0.3000000D-03 0.3000000D-03
EXPONENTS  0.9000000D-03 0.9000000D-03 0.9000000D-03 0.2700000D-02 0.2700000D-02
EXPONENTS  0.2700000D-02 0.1000000D-03 0.1000000D-03 0.1000000D-03 0.1000000D-03
EXPONENTS  0.1000000D-03 0.1000000D-03 0.3000000D-03 0.3000000D-03 0.3000000D-03
EXPONENTS  0.3000000D-03 0.3000000D-03 0.3000000D-03
MO    1     MO 0.0        OCC NO =    1.0000000  ORB. ENERGY =   -0.009779
  0.43979700D-05  0.17585343D-04 -0.75646216D-04 -0.69907037D-03 -0.43931229D-02
 -0.11076267D-01 -0.12717566D-01  0.25294778D-01  0.44580678D-02 -0.31768894D-03
  0.10333944D-07  0.00000000D+00 -0.00000000D+00  0.13285921D-06  0.00000000D+00
 -0.00000000D+00  0.52055517D-05  0.00000000D+00  0.00000000D+00 -0.27172422D-04
  0.00000000D+00 -0.00000000D+00 -0.21790043D-09 -0.10352525D-09 -0.10352525D-09
 -0.00000000D+00  0.00000000D+00  0.00000000D+00 -0.21753398D-08 -0.49810876D-08
 -0.49810876D-08  0.00000000D+00 -0.00000000D+00 -0.00000000D+00  0.43979700D-05
  0.17585343D-04 -0.75646216D-04 -0.69907037D-03 -0.43931229D-02 -0.11076267D-01
 -0.12717566D-01  0.25294778D-01  0.44580678D-02 -0.31768894D-03 -0.10333944D-07
 -0.00000000D+00  0.00000000D+00 -0.13285921D-06 -0.00000000D+00  0.00000000D+00
 -0.52055517D-05 -0.00000000D+00 -0.00000000D+00  0.27172422D-04 -0.00000000D+00
 -0.00000000D+00 -0.21790043D-09 -0.10352525D-09 -0.10352525D-09  0.00000000D+00
 -0.00000000D+00 -0.00000000D+00 -0.21753398D-08 -0.49810876D-08 -0.49810876D-08
 -0.00000000D+00  0.00000000D+00  0.00000000D+00
MO    2     MO 0.0        OCC NO =    0.0000000  ORB. ENERGY =    0.002270
  0.38613100D-05  0.42844403D-05 -0.62763598D-01  0.12959012D-01 -0.72421010D-02
 -0.41156630D-02 -0.65095365D-02  0.12180194D-01  0.19662471D-02 -0.80807921D-04
 -0.13317269D-05 -0.00000000D+00 -0.00000000D+00 -0.30220048D-05  0.00000000D+00
  0.00000000D+00 -0.48845097D-03 -0.00000000D+00 -0.00000000D+00  0.42583071D-03
  0.00000000D+00  0.00000000D+00 -0.50622383D-07 -0.61307985D-07 -0.61307985D-07
 -0.00000000D+00 -0.00000000D+00 -0.00000000D+00 -0.73872364D-06 -0.62015558D-06
 -0.62015558D-06  0.00000000D+00  0.00000000D+00  0.00000000D+00 -0.38613100D-05
 -0.42844403D-05  0.62763598D-01 -0.12959012D-01  0.72421010D-02  0.41156630D-02
  0.65095365D-02 -0.12180194D-01 -0.19662471D-02  0.80807921D-04 -0.13317269D-05
  0.00000000D+00  0.00000000D+00 -0.30220048D-05 -0.00000000D+00 -0.00000000D+00
 -0.48845097D-03  0.00000000D+00  0.00000000D+00  0.42583071D-03 -0.00000000D+00
 -0.00000000D+00  0.50622383D-07  0.61307985D-07  0.61307985D-07 -0.00000000D+00
 -0.00000000D+00  0.00000000D+00  0.73872365D-06  0.62015558D-06  0.62015558D-06
  0.00000000D+00  0.00000000D+00 -0.00000000D+00
MO    3     MO 0.0        OCC NO =    0.0000000  ORB. ENERGY =    0.002487
 -0.11483139D-03 -0.52873604D-03  0.43626152D-02 -0.56550874D-02  0.25098798D-02
 -0.55101728D-02 -0.29516392D-03  0.34198626D-02  0.16697849D-02 -0.38863126D-03
 -0.25189962D-06 -0.00000000D+00  0.00000000D+00 -0.41375759D-05 -0.00000000D+00
  0.00000000D+00  0.33375125D-04 -0.00000000D+00 -0.00000000D+00 -0.11169522D-04
  0.00000000D+00 -0.00000000D+00  0.32797908D-08  0.37937714D-08  0.37937714D-08
 -0.00000000D+00  0.00000000D+00  0.00000000D+00  0.10932530D-06  0.11573058D-06
  0.11573058D-06  0.00000000D+00 -0.00000000D+00 -0.00000000D+00 -0.11483139D-03
 -0.52873604D-03  0.43626152D-02 -0.56550874D-02  0.25098798D-02 -0.55101728D-02
 -0.29516392D-03  0.34198626D-02  0.16697849D-02 -0.38863126D-03  0.25189962D-06
  0.00000000D+00 -0.00000000D+00  0.41375759D-05  0.00000000D+00 -0.00000000D+00
 -0.33375125D-04  0.00000000D+00  0.00000000D+00  0.11169522D-04 -0.00000000D+00
 -0.00000000D+00  0.32797908D-08  0.37937714D-08  0.37937714D-08  0.00000000D+00
 -0.00000000D+00 -0.00000000D+00  0.10932530D-06  0.11573058D-06  0.11573058D-06
 -0.00000000D+00  0.00000000D+00  0.00000000D+00
MO    4     MO 0.0        OCC NO =    0.0000000  ORB. ENERGY =    0.003534
 -0.00000000D+00  0.00000000D+00  0.00000000D+00  0.00000000D+00 -0.00000000D+00
 -0.00000000D+00 -0.00000000D+00  0.00000000D+00  0.00000000D+00 -0.00000000D+00
 -0.00000000D+00  0.30177418D-06  0.25085166D-06 -0.00000000D+00 -0.51867925D-05
 -0.43115532D-05  0.00000000D+00  0.96181384D-04  0.79951367D-04  0.00000000D+00
  0.17434554D-04  0.14492578D-04 -0.00000000D+00 -0.00000000D+00 -0.00000000D+00
  0.34708001D-07  0.28851241D-07  0.00000000D+00 -0.00000000D+00 -0.00000000D+00
 -0.00000000D+00 -0.13063536D-06 -0.10859144D-06  0.00000000D+00  0.00000000D+00
 -0.00000000D+00 -0.00000000D+00 -0.00000000D+00  0.00000000D+00  0.00000000D+00
  0.00000000D+00 -0.00000000D+00 -0.00000000D+00  0.00000000D+00 -0.00000000D+00
  0.30177418D-06  0.25085166D-06 -0.00000000D+00 -0.51867925D-05 -0.43115532D-05
  0.00000000D+00  0.96181384D-04  0.79951367D-04  0.00000000D+00  0.17434554D-04
  0.14492578D-04  0.00000000D+00  0.00000000D+00  0.00000000D+00 -0.34708001D-07
 -0.28851241D-07 -0.00000000D+00  0.00000000D+00  0.00000000D+00  0.00000000D+00
  0.13063536D-06  0.10859144D-06 -0.00000000D+00
MO    5     MO 0.0        OCC NO =    0.0000000  ORB. ENERGY =    0.003534
  0.00000000D+00  0.00000000D+00  0.00000000D+00 -0.00000000D+00  0.00000000D+00
 -0.00000000D+00  0.00000000D+00 -0.00000000D+00  0.00000000D+00 -0.00000000D+00
 -0.00000000D+00  0.25085166D-06 -0.30177418D-06 -0.00000000D+00 -0.43115532D-05
  0.51867925D-05  0.00000000D+00  0.79951367D-04 -0.96181384D-04 -0.00000000D+00
  0.14492578D-04 -0.17434554D-04 -0.00000000D+00 -0.00000000D+00 -0.00000000D+00
  0.28851241D-07 -0.34708001D-07 -0.00000000D+00 -0.00000000D+00 -0.00000000D+00
 -0.00000000D+00 -0.10859144D-06  0.13063536D-06 -0.00000000D+00  0.00000000D+00
  0.00000000D+00 -0.00000000D+00  0.00000000D+00 -0.00000000D+00  0.00000000D+00
 -0.00000000D+00 -0.00000000D+00 -0.00000000D+00  0.00000000D+00 -0.00000000D+00
  0.25085166D-06 -0.30177418D-06 -0.00000000D+00 -0.43115532D-05  0.51867925D-05
  0.00000000D+00  0.79951367D-04 -0.96181384D-04 -0.00000000D+00  0.14492578D-04
 -0.17434554D-04  0.00000000D+00  0.00000000D+00  0.00000000D+00 -0.28851241D-07
  0.34708001D-07  0.00000000D+00  0.00000000D+00  0.00000000D+00  0.00000000D+00
  0.10859144D-06 -0.13063536D-06  0.00000000D+00
MO    6     MO 0.0        OCC NO =    0.0000000  ORB. ENERGY =    0.005585
  0.64196803D-05  0.69105202D-05 -0.11522980D+00  0.22069422D-01  0.45826956D-02
  0.78134778D-02  0.65101515D-02 -0.14220388D-01 -0.30207092D-02  0.32498452D-03
 -0.22067641D-05 -0.00000000D+00 -0.00000000D+00 -0.54655838D-05  0.00000000D+00
  0.00000000D+00 -0.89454355D-03 -0.00000000D+00 -0.00000000D+00  0.15914123D-03
 -0.00000000D+00 -0.00000000D+00 -0.83568974D-07 -0.10167167D-06 -0.10167167D-06
 -0.00000000D+00 -0.00000000D+00 -0.00000000D+00 -0.12428293D-05 -0.10409189D-05
 -0.10409189D-05  0.00000000D+00  0.00000000D+00  0.00000000D+00 -0.64196803D-05
 -0.69105202D-05  0.11522980D+00 -0.22069422D-01 -0.45826956D-02 -0.78134778D-02
 -0.65101515D-02  0.14220388D-01  0.30207092D-02 -0.32498452D-03 -0.22067641D-05
  0.00000000D+00  0.00000000D+00 -0.54655838D-05 -0.00000000D+00 -0.00000000D+00
 -0.89454355D-03  0.00000000D+00  0.00000000D+00  0.15914123D-03  0.00000000D+00
  0.00000000D+00  0.83568974D-07  0.10167167D-06  0.10167167D-06 -0.00000000D+00
 -0.00000000D+00  0.00000000D+00  0.12428293D-05  0.10409189D-05  0.10409189D-05
  0.00000000D+00  0.00000000D+00 -0.00000000D+00
MO    7     MO 0.0        OCC NO =    0.0000000  ORB. ENERGY =    0.006771
 -0.00000000D+00 -0.00000000D+00  0.00000000D+00  0.00000000D+00  0.00000000D+00
  0.00000000D+00  0.00000000D+00 -0.00000000D+00 -0.00000000D+00  0.00000000D+00
 -0.00000000D+00 -0.13300509D-08  0.16038581D-07 -0.00000000D+00  0.13937343D-07
 -0.16806303D-06  0.00000000D+00 -0.51324207D-04  0.61888680D-03  0.00000000D+00
 -0.47847434D-04  0.57696253D-03 -0.00000000D+00 -0.00000000D+00 -0.00000000D+00
  0.80096692D-09 -0.96583508D-08  0.00000000D+00 -0.00000000D+00 -0.00000000D+00
 -0.00000000D+00 -0.16198811D-07  0.19533137D-06 -0.00000000D+00 -0.00000000D+00
 -0.00000000D+00 -0.00000000D+00 -0.00000000D+00 -0.00000000D+00 -0.00000000D+00
 -0.00000000D+00  0.00000000D+00  0.00000000D+00  0.00000000D+00 -0.00000000D+00
  0.13300509D-08 -0.16038581D-07 -0.00000000D+00 -0.13937343D-07  0.16806303D-06
  0.00000000D+00  0.51324207D-04 -0.61888680D-03  0.00000000D+00  0.47847434D-04
 -0.57696253D-03  0.00000000D+00  0.00000000D+00  0.00000000D+00  0.80096692D-09
 -0.96583508D-08 -0.00000000D+00  0.00000000D+00  0.00000000D+00  0.00000000D+00
 -0.16198811D-07  0.19533137D-06  0.00000000D+00
MO    8     MO 0.0        OCC NO =    0.0000000  ORB. ENERGY =    0.006771
  0.00000000D+00  0.00000000D+00  0.00000000D+00  0.00000000D+00  0.00000000D+00
  0.00000000D+00  0.00000000D+00 -0.00000000D+00 -0.00000000D+00 -0.00000000D+00
 -0.00000000D+00  0.16038581D-07  0.13300509D-08 -0.00000000D+00 -0.16806303D-06
 -0.13937343D-07  0.00000000D+00  0.61888680D-03  0.51324207D-04  0.00000000D+00
  0.57696253D-03  0.47847434D-04 -0.00000000D+00 -0.00000000D+00 -0.00000000D+00
 -0.96583508D-08 -0.80096692D-09  0.00000000D+00 -0.00000000D+00 -0.00000000D+00
 -0.00000000D+00  0.19533137D-06  0.16198811D-07 -0.00000000D+00  0.00000000D+00
  0.00000000D+00 -0.00000000D+00 -0.00000000D+00 -0.00000000D+00 -0.00000000D+00
 -0.00000000D+00  0.00000000D+00  0.00000000D+00 -0.00000000D+00 -0.00000000D+00
 -0.16038581D-07 -0.13300509D-08 -0.00000000D+00  0.16806303D-06  0.13937343D-07
  0.00000000D+00 -0.61888680D-03 -0.51324207D-04  0.00000000D+00 -0.57696253D-03
 -0.47847434D-04  0.00000000D+00  0.00000000D+00  0.00000000D+00 -0.96583508D-08
 -0.80096692D-09 -0.00000000D+00  0.00000000D+00  0.00000000D+00  0.00000000D+00
  0.19533137D-06  0.16198811D-07  0.00000000D+00
MO    9     MO 0.0        OCC NO =    0.0000000  ORB. ENERGY =    0.006785
 -0.16868366D-03 -0.76574117D-03  0.14609954D-02  0.48572945D-02 -0.98745449D-03
  0.50686495D-03 -0.79035845D-03  0.91854772D-03 -0.82444144D-04  0.69627696D-04
 -0.40506672D-06 -0.00000000D+00 -0.00000000D+00 -0.56786110D-05 -0.00000000D+00
  0.00000000D+00 -0.50937931D-03  0.00000000D+00 -0.00000000D+00 -0.51879634D-03
  0.00000000D+00 -0.00000000D+00  0.10441036D-07  0.29805308D-08  0.29805308D-08
 -0.00000000D+00  0.00000000D+00 -0.00000000D+00  0.42771429D-07  0.21932097D-06
  0.21932097D-06  0.00000000D+00 -0.00000000D+00  0.00000000D+00 -0.16868366D-03
 -0.76574117D-03  0.14609954D-02  0.48572945D-02 -0.98745449D-03  0.50686495D-03
 -0.79035845D-03  0.91854772D-03 -0.82444144D-04  0.69627696D-04  0.40506672D-06
  0.00000000D+00  0.00000000D+00  0.56786110D-05  0.00000000D+00 -0.00000000D+00
  0.50937931D-03 -0.00000000D+00  0.00000000D+00  0.51879634D-03 -0.00000000D+00
  0.00000000D+00  0.10441036D-07  0.29805308D-08  0.29805308D-08 -0.00000000D+00
  0.00000000D+00  0.00000000D+00  0.42771429D-07  0.21932097D-06  0.21932097D-06
  0.00000000D+00 -0.00000000D+00 -0.00000000D+00
MO   10     MO 0.0        OCC NO =    0.0000000  ORB. ENERGY =    0.009100
  0.00000000D+00 -0.00000000D+00 -0.00000000D+00  0.00000000D+00 -0.00000000D+00
  0.00000000D+00 -0.00000000D+00  0.00000000D+00  0.00000000D+00 -0.00000000D+00
  0.00000000D+00 -0.14589323D-06 -0.35621903D-06  0.00000000D+00  0.25355800D-05
  0.61909740D-05 -0.00000000D+00 -0.54864837D-04 -0.13396020D-03  0.00000000D+00
  0.25515422D-03  0.62299481D-03  0.00000000D+00  0.00000000D+00  0.00000000D+00
 -0.15279504D-07 -0.37307055D-07 -0.00000000D+00  0.00000000D+00  0.00000000D+00
  0.00000000D+00  0.53665237D-07  0.13103122D-06  0.00000000D+00  0.00000000D+00
  0.00000000D+00  0.00000000D+00 -0.00000000D+00  0.00000000D+00 -0.00000000D+00
  0.00000000D+00 -0.00000000D+00  0.00000000D+00  0.00000000D+00  0.00000000D+00
 -0.14589323D-06 -0.35621903D-06  0.00000000D+00  0.25355800D-05  0.61909740D-05
 -0.00000000D+00 -0.54864837D-04 -0.13396020D-03  0.00000000D+00  0.25515422D-03
  0.62299481D-03 -0.00000000D+00 -0.00000000D+00 -0.00000000D+00  0.15279504D-07
  0.37307055D-07  0.00000000D+00 -0.00000000D+00 -0.00000000D+00 -0.00000000D+00
 -0.53665237D-07 -0.13103122D-06 -0.00000000D+00
MO   11     MO 0.0        OCC NO =    0.0000000  ORB. ENERGY =    0.009100
 -0.00000000D+00  0.00000000D+00  0.00000000D+00  0.00000000D+00 -0.00000000D+00
  0.00000000D+00  0.00000000D+00 -0.00000000D+00 -0.00000000D+00  0.00000000D+00
 -0.00000000D+00  0.35621903D-06 -0.14589323D-06 -0.00000000D+00 -0.61909740D-05
  0.25355800D-05  0.00000000D+00  0.13396020D-03 -0.54864837D-04  0.00000000D+00
 -0.62299481D-03  0.25515422D-03 -0.00000000D+00 -0.00000000D+00 -0.00000000D+00
  0.37307055D-07 -0.15279504D-07  0.00000000D+00 -0.00000000D+00 -0.00000000D+00
 -0.00000000D+00 -0.13103122D-06  0.53665237D-07 -0.00000000D+00 -0.00000000D+00
 -0.00000000D+00 -0.00000000D+00 -0.00000000D+00  0.00000000D+00 -0.00000000D+00
 -0.00000000D+00  0.00000000D+00  0.00000000D+00 -0.00000000D+00 -0.00000000D+00
  0.35621903D-06 -0.14589323D-06 -0.00000000D+00 -0.61909740D-05  0.25355800D-05
  0.00000000D+00  0.13396020D-03 -0.54864837D-04  0.00000000D+00 -0.62299481D-03
  0.25515422D-03  0.00000000D+00  0.00000000D+00  0.00000000D+00 -0.37307055D-07
  0.15279504D-07 -0.00000000D+00  0.00000000D+00  0.00000000D+00  0.00000000D+00
  0.13103122D-06 -0.53665237D-07  0.00000000D+00
MO   12     MO 0.0        OCC NO =    0.0000000  ORB. ENERGY =    0.010480
  0.26020877D-05  0.12532734D-03  0.57870494D+00  0.22657165D+00 -0.45662028D-02
  0.32183530D-02  0.14446928D-03 -0.19043500D-02 -0.85238869D-03  0.18636867D-03
 -0.12242361D-05  0.00000000D+00  0.14254109D-12 -0.17059567D-04 -0.00000000D+00
 -0.56278389D-12  0.53768543D-02  0.00000000D+00  0.00000000D+00  0.71606467D-02
 -0.00000000D+00 -0.00000000D+00 -0.10348052D-06 -0.74660670D-08 -0.74660670D-08
  0.00000000D+00  0.00000000D+00  0.00000000D+00 -0.76238064D-06 -0.17613102D-05
 -0.17613102D-05 -0.00000000D+00 -0.00000000D+00 -0.00000000D+00 -0.26020877D-05
 -0.12532732D-03 -0.57870494D+00 -0.22657165D+00  0.45662028D-02 -0.32183530D-02
 -0.14446928D-03  0.19043500D-02  0.85238869D-03 -0.18636867D-03 -0.12242361D-05
 -0.00000000D+00 -0.14254109D-12 -0.17059567D-04  0.00000000D+00  0.56278389D-12
  0.53768543D-02 -0.00000000D+00 -0.00000000D+00  0.71606467D-02  0.00000000D+00
  0.00000000D+00  0.10348052D-06  0.74660670D-08  0.74660670D-08  0.00000000D+00
  0.00000000D+00 -0.00000000D+00  0.76238064D-06  0.17613102D-05  0.17613102D-05
 -0.00000000D+00 -0.00000000D+00  0.00000000D+00
MO   13     MO 0.0        OCC NO =    0.0000000  ORB. ENERGY =    0.010712
 -0.99780163D-04  0.19484617D-03 -0.32099789D-02  0.13455027D-01 -0.18058306D-01
  0.25040761D-02 -0.97276116D-02  0.13379901D-01  0.23846870D-03  0.54445565D-03
 -0.22460428D-06  0.00000000D+00 -0.00000000D+00  0.74392714D-06 -0.00000000D+00
 -0.00000000D+00  0.12515617D-03  0.00000000D+00 -0.00000000D+00 -0.16794503D-03
 -0.00000000D+00 -0.00000000D+00  0.18906485D-08  0.45631975D-08  0.45631975D-08
  0.00000000D+00  0.00000000D+00 -0.00000000D+00  0.67897828D-07  0.18816274D-07
  0.18816274D-07 -0.00000000D+00  0.00000000D+00  0.00000000D+00 -0.99780163D-04
  0.19484617D-03 -0.32099789D-02  0.13455027D-01 -0.18058306D-01  0.25040761D-02
 -0.97276116D-02  0.13379901D-01  0.23846870D-03  0.54445565D-03  0.22460428D-06
 -0.00000000D+00  0.00000000D+00 -0.74392714D-06  0.00000000D+00  0.00000000D+00
 -0.12515617D-03 -0.00000000D+00  0.00000000D+00  0.16794503D-03  0.00000000D+00
  0.00000000D+00  0.18906485D-08  0.45631975D-08  0.45631975D-08 -0.00000000D+00
 -0.00000000D+00  0.00000000D+00  0.67897828D-07  0.18816274D-07  0.18816274D-07
  0.00000000D+00 -0.00000000D+00 -0.00000000D+00
MO   14     MO 0.0        OCC NO =    0.0000000  ORB. ENERGY =    0.014653
 -0.00000000D+00 -0.00000000D+00 -0.00000000D+00  0.00000000D+00  0.00000000D+00
  0.00000000D+00  0.00000000D+00 -0.00000000D+00 -0.00000000D+00 -0.00000000D+00
  0.00000000D+00 -0.65997952D-08 -0.12172867D-07  0.00000000D+00  0.20142035D-07
  0.37150490D-07 -0.00000000D+00 -0.41732174D-03 -0.76972119D-03  0.00000000D+00
  0.10288644D-02  0.18976695D-02  0.00000000D+00  0.00000000D+00  0.00000000D+00
  0.52551594D-08  0.96927801D-08 -0.00000000D+00  0.00000000D+00  0.00000000D+00
  0.00000000D+00 -0.10861760D-06 -0.20033768D-06  0.00000000D+00  0.00000000D+00
  0.00000000D+00  0.00000000D+00 -0.00000000D+00 -0.00000000D+00 -0.00000000D+00
 -0.00000000D+00  0.00000000D+00  0.00000000D+00  0.00000000D+00  0.00000000D+00
  0.65997952D-08  0.12172867D-07  0.00000000D+00 -0.20142035D-07 -0.37150490D-07
 -0.00000000D+00  0.41732174D-03  0.76972119D-03  0.00000000D+00 -0.10288644D-02
 -0.18976695D-02 -0.00000000D+00 -0.00000000D+00 -0.00000000D+00  0.52551594D-08
  0.96927801D-08  0.00000000D+00 -0.00000000D+00 -0.00000000D+00 -0.00000000D+00
 -0.10861760D-06 -0.20033768D-06 -0.00000000D+00
MO   15     MO 0.0        OCC NO =    0.0000000  ORB. ENERGY =    0.014653
  0.00000000D+00  0.00000000D+00  0.00000000D+00 -0.00000000D+00 -0.00000000D+00
 -0.00000000D+00 -0.00000000D+00  0.00000000D+00  0.00000000D+00  0.00000000D+00
 -0.00000000D+00 -0.12172867D-07  0.65997952D-08 -0.00000000D+00  0.37150490D-07
 -0.20142035D-07  0.00000000D+00 -0.76972119D-03  0.41732174D-03 -0.00000000D+00
  0.18976695D-02 -0.10288644D-02 -0.00000000D+00 -0.00000000D+00 -0.00000000D+00
  0.96927801D-08 -0.52551594D-08 -0.00000000D+00 -0.00000000D+00 -0.00000000D+00
 -0.00000000D+00 -0.20033768D-06  0.10861760D-06  0.00000000D+00 -0.00000000D+00
 -0.00000000D+00 -0.00000000D+00  0.00000000D+00  0.00000000D+00  0.00000000D+00
  0.00000000D+00 -0.00000000D+00 -0.00000000D+00 -0.00000000D+00 -0.00000000D+00
  0.12172867D-07 -0.65997952D-08 -0.00000000D+00 -0.37150490D-07  0.20142035D-07
  0.00000000D+00  0.76972119D-03 -0.41732174D-03 -0.00000000D+00 -0.18976695D-02
  0.10288644D-02  0.00000000D+00  0.00000000D+00  0.00000000D+00  0.96927801D-08
 -0.52551594D-08  0.00000000D+00  0.00000000D+00  0.00000000D+00  0.00000000D+00
 -0.20033768D-06  0.10861760D-06 -0.00000000D+00
MO   16     MO 0.0        OCC NO =    0.0000000  ORB. ENERGY =    0.014901
  0.37739338D-03  0.14899724D-02 -0.50640950D-02 -0.57660248D-04  0.12089532D-01
 -0.39845265D-02  0.48392848D-02 -0.52116552D-02  0.64484434D-03 -0.45238460D-03
  0.86724838D-06  0.00000000D+00 -0.00000000D+00  0.11754693D-04  0.00000000D+00
 -0.00000000D+00  0.71077430D-03  0.00000000D+00  0.00000000D+00 -0.17047796D-02
 -0.00000000D+00 -0.00000000D+00 -0.17579800D-07 -0.98158703D-08 -0.98158703D-08
  0.00000000D+00  0.00000000D+00  0.00000000D+00 -0.19547387D-06 -0.41076122D-06
 -0.41076122D-06  0.00000000D+00 -0.00000000D+00 -0.00000000D+00  0.37739338D-03
  0.14899724D-02 -0.50640951D-02 -0.57660248D-04  0.12089532D-01 -0.39845265D-02
  0.48392848D-02 -0.52116552D-02  0.64484434D-03 -0.45238460D-03 -0.86724838D-06
 -0.00000000D+00  0.00000000D+00 -0.11754693D-04 -0.00000000D+00  0.00000000D+00
 -0.71077430D-03 -0.00000000D+00 -0.00000000D+00  0.17047796D-02  0.00000000D+00
  0.00000000D+00 -0.17579800D-07 -0.98158703D-08 -0.98158703D-08 -0.00000000D+00
 -0.00000000D+00 -0.00000000D+00 -0.19547387D-06 -0.41076122D-06 -0.41076122D-06
  0.00000000D+00  0.00000000D+00  0.00000000D+00
MO   17     MO 0.0        OCC NO =    0.0000000  ORB. ENERGY =    0.015460
  0.56472928D-05  0.10215950D-03  0.32075658D+00 -0.27456554D-01 -0.25619593D-01
  0.45687152D-03 -0.12424529D-01  0.18005069D-01  0.99184441D-03  0.51763022D-03
 -0.21685240D-05  0.00000000D+00  0.00000000D+00 -0.19410953D-04 -0.00000000D+00
 -0.00000000D+00  0.32121371D-02 -0.00000000D+00 -0.00000000D+00 -0.16761717D-02
  0.00000000D+00  0.00000000D+00 -0.12072897D-06 -0.62655706D-07 -0.62655706D-07
  0.00000000D+00  0.00000000D+00  0.00000000D+00 -0.14348353D-05 -0.20100147D-05
 -0.20100147D-05 -0.00000000D+00 -0.00000000D+00 -0.00000000D+00 -0.56472928D-05
 -0.10215950D-03 -0.32075658D+00  0.27456554D-01  0.25619593D-01 -0.45687152D-03
  0.12424529D-01 -0.18005069D-01 -0.99184441D-03 -0.51763022D-03 -0.21685240D-05
 -0.00000000D+00 -0.00000000D+00 -0.19410952D-04  0.00000000D+00  0.00000000D+00
  0.32121371D-02  0.00000000D+00  0.00000000D+00 -0.16761717D-02 -0.00000000D+00
 -0.00000000D+00  0.12072897D-06  0.62655706D-07  0.62655706D-07  0.00000000D+00
  0.00000000D+00 -0.00000000D+00  0.14348353D-05  0.20100147D-05  0.20100147D-05
 -0.00000000D+00 -0.00000000D+00  0.00000000D+00
MO   18     MO 0.0        OCC NO =    0.0000000  ORB. ENERGY =    0.021847
  0.14641194D-04  0.23968162D-03  0.91543069D+00 -0.37593343D+00  0.32947405D-01
 -0.51588980D-02  0.10195366D-01 -0.12346168D-01  0.33248349D-03 -0.68253854D-03
 -0.56975905D-05  0.14254109D-12  0.14254109D-12 -0.36964546D-04 -0.00000000D+00
 -0.56278389D-12  0.87879954D-02  0.00000000D+00  0.00000000D+00 -0.10451715D-01
  0.00000000D+00  0.00000000D+00 -0.31280218D-06 -0.19263265D-06 -0.19263265D-06
  0.00000000D+00  0.00000000D+00  0.00000000D+00 -0.33031675D-05 -0.45207214D-05
 -0.45207214D-05 -0.00000000D+00 -0.00000000D+00 -0.00000000D+00 -0.14641187D-04
 -0.23968162D-03 -0.91543069D+00  0.37593343D+00 -0.32947405D-01  0.51588980D-02
 -0.10195366D-01  0.12346168D-01 -0.33248349D-03  0.68253854D-03 -0.56975905D-05
 -0.14254109D-12 -0.14254109D-12 -0.36964545D-04  0.00000000D+00  0.56278389D-12
  0.87879954D-02 -0.00000000D+00 -0.00000000D+00 -0.10451715D-01 -0.00000000D+00
 -0.00000000D+00  0.31280218D-06  0.19263265D-06  0.19263265D-06  0.00000000D+00
  0.00000000D+00 -0.00000000D+00  0.33031675D-05  0.45207214D-05  0.45207214D-05
 -0.00000000D+00 -0.00000000D+00  0.00000000D+00
MO   19     MO 0.0        OCC NO =    0.0000000  ORB. ENERGY =    0.026365
 -0.21761717D-02 -0.49584517D-02  0.15371189D-01 -0.15554937D-01  0.71996254D-02
  0.68669248D-02  0.68052764D-03 -0.46840760D-02 -0.20505565D-02  0.44012662D-03
 -0.49036691D-05 -0.00000000D+00  0.00000000D+00 -0.43646133D-04 -0.00000000D+00
  0.00000000D+00 -0.89065042D-04  0.00000000D+00 -0.00000000D+00  0.24200500D-03
 -0.00000000D+00  0.00000000D+00  0.69708543D-07  0.77428680D-07  0.77428680D-07
 -0.00000000D+00 -0.00000000D+00 -0.00000000D+00  0.15561081D-05  0.16506072D-05
  0.16506072D-05  0.00000000D+00  0.00000000D+00  0.00000000D+00 -0.21761717D-02
 -0.49584517D-02  0.15371189D-01 -0.15554937D-01  0.71996254D-02  0.68669248D-02
  0.68052764D-03 -0.46840760D-02 -0.20505565D-02  0.44012662D-03  0.49036691D-05
  0.00000000D+00 -0.00000000D+00  0.43646133D-04  0.00000000D+00 -0.00000000D+00
  0.89065042D-04 -0.00000000D+00  0.00000000D+00 -0.24200500D-03  0.00000000D+00
 -0.00000000D+00  0.69708543D-07  0.77428680D-07  0.77428680D-07  0.00000000D+00
  0.00000000D+00  0.00000000D+00  0.15561081D-05  0.16506072D-05  0.16506072D-05
 -0.00000000D+00 -0.00000000D+00 -0.00000000D+00
MO   20     MO 0.0        OCC NO =    0.0000000  ORB. ENERGY =    0.035628
  0.85558938D-04  0.20462571D-03  0.23217017D+00 -0.10260330D+00  0.25543780D-02
 -0.10435080D-01  0.14253257D-02  0.33906491D-02  0.25844275D-02 -0.66039127D-03
 -0.29930862D-04  0.00000000D+00  0.00000000D+00 -0.32801434D-04 -0.00000000D+00
 -0.00000000D+00  0.27149147D-02  0.00000000D+00  0.00000000D+00 -0.36438996D-02
 -0.00000000D+00 -0.00000000D+00 -0.14794059D-05 -0.15328328D-05 -0.15328328D-05
  0.00000000D+00  0.00000000D+00  0.00000000D+00 -0.13408315D-04 -0.12999368D-04
 -0.12999368D-04 -0.00000000D+00 -0.00000000D+00 -0.00000000D+00 -0.85558938D-04
 -0.20462571D-03 -0.23217017D+00  0.10260330D+00 -0.25543780D-02  0.10435080D-01
 -0.14253257D-02 -0.33906491D-02 -0.25844275D-02  0.66039127D-03 -0.29930862D-04
 -0.00000000D+00 -0.00000000D+00 -0.32801433D-04  0.00000000D+00  0.00000000D+00
  0.27149147D-02 -0.00000000D+00 -0.00000000D+00 -0.36438996D-02 -0.00000000D+00
  0.00000000D+00  0.14794059D-05  0.15328328D-05  0.15328328D-05  0.00000000D+00
  0.00000000D+00 -0.00000000D+00  0.13408315D-04  0.12999368D-04  0.12999368D-04
 -0.00000000D+00 -0.00000000D+00  0.00000000D+00
MO   21     MO 0.0        OCC NO =    0.0000000  ORB. ENERGY =    0.037200
 -0.00000000D+00 -0.00000000D+00 -0.00000000D+00  0.00000000D+00 -0.00000000D+00
  0.00000000D+00 -0.00000000D+00 -0.00000000D+00 -0.00000000D+00  0.00000000D+00
  0.00000000D+00 -0.00000000D+00 -0.00000000D+00  0.00000000D+00 -0.00000000D+00
 -0.00000000D+00 -0.00000000D+00  0.00000000D+00  0.00000000D+00  0.00000000D+00
 -0.00000000D+00 -0.00000000D+00  0.00000000D+00  0.31308699D-07 -0.31308699D-07
  0.00000000D+00  0.00000000D+00  0.60902005D-07  0.00000000D+00 -0.43622280D-06
  0.43622280D-06 -0.00000000D+00 -0.00000000D+00 -0.84854510D-06 -0.00000000D+00
  0.00000000D+00  0.00000000D+00 -0.00000000D+00  0.00000000D+00 -0.00000000D+00
 -0.00000000D+00  0.00000000D+00  0.00000000D+00 -0.00000000D+00  0.00000000D+00
 -0.00000000D+00 -0.00000000D+00  0.00000000D+00 -0.00000000D+00 -0.00000000D+00
 -0.00000000D+00 -0.00000000D+00  0.00000000D+00  0.00000000D+00  0.00000000D+00
 -0.00000000D+00 -0.00000000D+00  0.31308699D-07 -0.31308699D-07 -0.00000000D+00
 -0.00000000D+00  0.60902005D-07 -0.00000000D+00 -0.43622280D-06  0.43622280D-06
  0.00000000D+00  0.00000000D+00 -0.84854510D-06
MO   22     MO 0.0        OCC NO =    0.0000000  ORB. ENERGY =    0.037200
  0.00000000D+00  0.00000000D+00  0.00000000D+00 -0.00000000D+00  0.00000000D+00
 -0.00000000D+00  0.00000000D+00  0.00000000D+00  0.00000000D+00  0.00000000D+00
 -0.00000000D+00 -0.00000000D+00  0.00000000D+00 -0.00000000D+00 -0.00000000D+00
  0.00000000D+00  0.00000000D+00  0.00000000D+00 -0.00000000D+00 -0.00000000D+00
 -0.00000000D+00  0.00000000D+00 -0.00000000D+00 -0.30451003D-07  0.30451003D-07
  0.00000000D+00 -0.00000000D+00  0.62617399D-07 -0.00000000D+00  0.42427255D-06
 -0.42427255D-06 -0.00000000D+00  0.00000000D+00 -0.87244559D-06  0.00000000D+00
  0.00000000D+00 -0.00000000D+00  0.00000000D+00 -0.00000000D+00  0.00000000D+00
  0.00000000D+00 -0.00000000D+00  0.00000000D+00 -0.00000000D+00 -0.00000000D+00
 -0.00000000D+00  0.00000000D+00 -0.00000000D+00 -0.00000000D+00  0.00000000D+00
  0.00000000D+00  0.00000000D+00  0.00000000D+00 -0.00000000D+00  0.00000000D+00
 -0.00000000D+00  0.00000000D+00 -0.30451003D-07  0.30451003D-07 -0.00000000D+00
  0.00000000D+00  0.62617399D-07  0.00000000D+00  0.42427255D-06 -0.42427255D-06
  0.00000000D+00 -0.00000000D+00 -0.87244559D-06
MO   23     MO 0.0        OCC NO =    0.0000000  ORB. ENERGY =    0.041384
  0.00000000D+00 -0.00000000D+00 -0.00000000D+00  0.00000000D+00 -0.00000000D+00
  0.00000000D+00 -0.00000000D+00  0.00000000D+00 -0.00000000D+00  0.00000000D+00
  0.00000000D+00  0.18617178D-05 -0.32163229D-06  0.00000000D+00 -0.50014458D-04
  0.86405494D-05 -0.00000000D+00  0.19293956D-03 -0.33332438D-04  0.00000000D+00
 -0.27109898D-03  0.46835336D-04  0.00000000D+00  0.00000000D+00  0.00000000D+00
  0.92074015D-06 -0.15906802D-06  0.00000000D+00  0.00000000D+00  0.00000000D+00
  0.00000000D+00 -0.43756517D-05  0.75594210D-06 -0.00000000D+00  0.00000000D+00
  0.00000000D+00  0.00000000D+00 -0.00000000D+00  0.00000000D+00 -0.00000000D+00
  0.00000000D+00 -0.00000000D+00  0.00000000D+00 -0.00000000D+00  0.00000000D+00
  0.18617178D-05 -0.32163229D-06  0.00000000D+00 -0.50014458D-04  0.86405494D-05
 -0.00000000D+00  0.19293956D-03 -0.33332438D-04  0.00000000D+00 -0.27109898D-03
  0.46835336D-04 -0.00000000D+00 -0.00000000D+00 -0.00000000D+00 -0.92074015D-06
  0.15906802D-06 -0.00000000D+00 -0.00000000D+00 -0.00000000D+00 -0.00000000D+00
  0.43756517D-05 -0.75594210D-06  0.00000000D+00
MO   24     MO 0.0        OCC NO =    0.0000000  ORB. ENERGY =    0.041384
  0.00000000D+00 -0.00000000D+00 -0.00000000D+00  0.00000000D+00 -0.00000000D+00
  0.00000000D+00 -0.00000000D+00 -0.00000000D+00 -0.00000000D+00  0.00000000D+00
 -0.00000000D+00  0.32163229D-06  0.18617178D-05  0.00000000D+00 -0.86405494D-05
 -0.50014458D-04 -0.00000000D+00  0.33332438D-04  0.19293956D-03  0.00000000D+00
 -0.46835336D-04 -0.27109898D-03 -0.00000000D+00 -0.00000000D+00 -0.00000000D+00
  0.15906802D-06  0.92074015D-06  0.00000000D+00 -0.00000000D+00 -0.00000000D+00
 -0.00000000D+00 -0.75594210D-06 -0.43756517D-05 -0.00000000D+00 -0.00000000D+00
  0.00000000D+00  0.00000000D+00 -0.00000000D+00  0.00000000D+00 -0.00000000D+00
  0.00000000D+00  0.00000000D+00  0.00000000D+00 -0.00000000D+00 -0.00000000D+00
  0.32163229D-06  0.18617178D-05  0.00000000D+00 -0.86405494D-05 -0.50014458D-04