[Molden Format]
[Title]
 Molden2AIM, Version 3.1.0 (02/25/2015)           Time: Thu Oct 17 19:54:22 2024

[Atoms] AU
E+       1       4     0.00000000     0.00000000     0.00000000
E+       2       4    31.80000000     0.00000000     0.00000000
[GTO]
    1 0
 S   1 1.0
    0.1000000000D-03      0.1000000000D+01
 S   1 1.0
    0.3000000000D-03      0.1000000000D+01
 S   1 1.0
    0.9000000000D-03      0.1000000000D+01
 S   1 1.0
    0.2700000000D-02      0.1000000000D+01
 S   1 1.0
    0.8100000000D-02      0.1000000000D+01
 S   1 1.0
    0.2430000000D-01      0.1000000000D+01
 S   1 1.0
    0.7290000000D-01      0.1000000000D+01
 S   1 1.0
    0.2187000000D+00      0.1000000000D+01
 S   1 1.0
    0.6561000000D+00      0.1000000000D+01
 S   1 1.0
    0.1968300000D+01      0.1000000000D+01
 P   1 1.0
    0.1000000000D-03      0.1000000000D+01
 P   1 1.0
    0.3000000000D-03      0.1000000000D+01
 P   1 1.0
    0.9000000000D-03      0.1000000000D+01
 P   1 1.0
    0.2700000000D-02      0.1000000000D+01
 D   1 1.0
    0.1000000000D-03      0.1000000000D+01
 D   1 1.0
    0.3000000000D-03      0.1000000000D+01

    2 0
 S   1 1.0
    0.1000000000D-03      0.1000000000D+01
 S   1 1.0
    0.3000000000D-03      0.1000000000D+01
 S   1 1.0
    0.9000000000D-03      0.1000000000D+01
 S   1 1.0
    0.2700000000D-02      0.1000000000D+01
 S   1 1.0
    0.8100000000D-02      0.1000000000D+01
 S   1 1.0
    0.2430000000D-01      0.1000000000D+01
 S   1 1.0
    0.7290000000D-01      0.1000000000D+01
 S   1 1.0
    0.2187000000D+00      0.1000000000D+01
 S   1 1.0
    0.6561000000D+00      0.1000000000D+01
 S   1 1.0
    0.1968300000D+01      0.1000000000D+01
 P   1 1.0
    0.1000000000D-03      0.1000000000D+01
 P   1 1.0
    0.3000000000D-03      0.1000000000D+01
 P   1 1.0
    0.9000000000D-03      0.1000000000D+01
 P   1 1.0
    0.2700000000D-02      0.1000000000D+01
 D   1 1.0
    0.1000000000D-03      0.1000000000D+01
 D   1 1.0
    0.3000000000D-03      0.1000000000D+01


[MO]
 Ene=         -0.00348850
 Spin= Alpha
 Occup=        1.00000000
    1       -0.0890370100
    2        0.0779731500
    3       -0.0004339200
    4        0.2527608900
    5        0.2538691200
    6        0.1815108300
    7        0.1158077500
    8       -0.0932794400
    9       -0.0062974900
   10        0.0000793600
   11        0.3379874400
   12       -0.0000000000
   13        0.0000000000
   14       -0.1150984400
   15        0.0000000000
   16       -0.0000000000
   17        0.0586088200
   18       -0.0000000000
   19        0.0000000000
   20       -0.0244811400
   21        0.0000000000
   22       -0.0000000000
   23        0.0923593900
   24       -0.0027809000
   25       -0.0027809000
   26       -0.0000000000
   27        0.0000000000
   28       -0.0000000000
   29       -0.0581339800
   30       -0.0112645300
   31       -0.0112645300
   32        0.0000000000
   33       -0.0000000000
   34        0.0000000000
   35       -0.0890370100
   36        0.0779731500
   37       -0.0004339200
   38        0.2527608900
   39        0.2538691200
   40        0.1815108300
   41        0.1158077500
   42       -0.0932794400
   43       -0.0062974900
   44        0.0000793600
   45       -0.3379874400
   46        0.0000000000
   47       -0.0000000000
   48        0.1150984400
   49       -0.0000000000
   50        0.0000000000
   51       -0.0586088200
   52       -0.0000000000
   53        0.0000000000
   54        0.0244811400
   55        0.0000000000
   56        0.0000000000
   57        0.0923593900
   58       -0.0027809000
   59       -0.0027809000
   60       -0.0000000000
   61        0.0000000000
   62       -0.0000000000
   63       -0.0581339800
   64       -0.0112645300
   65       -0.0112645300
   66        0.0000000000
   67       -0.0000000000
   68        0.0000000000
 Ene=         -0.00278431
 Spin= Alpha
 Occup=        0.00000000
    1        0.0025419500
    2        0.0090320300
    3        0.0726114900
    4        0.3296618600
    5        0.2572549500
    6        0.2030926100
    7        0.1200555600
    8       -0.0983127900
    9       -0.0069504100
   10        0.0001277700
   11       -0.0138390200
   12        0.0000000000
   13       -0.0000000000
   14       -0.0233645700
   15       -0.0000000000
   16        0.0000000000
   17        0.0980373000
   18        0.0000000000
   19        0.0000000000
   20       -0.0237732700
   21       -0.0000000000
   22       -0.0000000000
   23       -0.0221534200
   24       -0.0117672800
   25       -0.0117672800
   26        0.0000000000
   27       -0.0000000000
   28       -0.0000000000
   29       -0.0374002700
   30       -0.0481233600
   31       -0.0481233600
   32       -0.0000000000
   33        0.0000000000
   34        0.0000000000
   35       -0.0025419500
   36       -0.0090320300
   37       -0.0726114900
   38       -0.3296618600
   39       -0.2572549500
   40       -0.2030926100
   41       -0.1200555600
   42        0.0983127900
   43        0.0069504100
   44       -0.0001277700
   45       -0.0138390200
   46       -0.0000000000
   47        0.0000000000
   48       -0.0233645700
   49        0.0000000000
   50       -0.0000000000
   51        0.0980373000
   52       -0.0000000000
   53        0.0000000000
   54       -0.0237732700
   55        0.0000000000
   56       -0.0000000000
   57        0.0221534200
   58        0.0117672800
   59        0.0117672800
   60        0.0000000000
   61       -0.0000000000
   62       -0.0000000000
   63        0.0374002700
   64        0.0481233600
   65        0.0481233600
   66       -0.0000000000
   67        0.0000000000
   68        0.0000000000
 Ene=          0.00409663
 Spin= Alpha
 Occup=        0.00000000
    1        0.7664222400
    2       -0.0077477800
    3       -1.0983040600
    4        0.8209955100
    5        0.0239277600
    6        0.1133398500
    7        0.0350278100
    8       -0.0341823400
    9       -0.0034029700
   10        0.0001820700
   11       -1.9088434300
   12       -0.0000000000
   13        0.0000000000
   14        0.6000650000
   15       -0.0000000000
   16       -0.0000000000
   17       -0.5004505800
   18       -0.0000000000
   19        0.0000000000
   20        0.0514515400
   21       -0.0000000000
   22       -0.0000000000
   23       -0.5549676000
   24       -0.0227954900
   25       -0.0227954900
   26       -0.0000000000
   27        0.0000000000
   28        0.0000000000
   29        0.1399028000
   30       -0.0817550200
   31       -0.0817550200
   32       -0.0000000000
   33        0.0000000000
   34        0.0000000000
   35        0.7664222400
   36       -0.0077477800
   37       -1.0983040600
   38        0.8209955100
   39        0.0239277600
   40        0.1133398500
   41        0.0350278100
   42       -0.0341823400
   43       -0.0034029700
   44        0.0001820700
   45        1.9088434300
   46        0.0000000000
   47       -0.0000000000
   48       -0.6000650000
   49        0.0000000000
   50        0.0000000000
   51        0.5004505800
   52        0.0000000000
   53       -0.0000000000
   54       -0.0514515400
   55       -0.0000000000
   56        0.0000000000
   57       -0.5549676000
   58       -0.0227954900
   59       -0.0227954900
   60       -0.0000000000
   61        0.0000000000
   62       -0.0000000000
   63        0.1399028000
   64       -0.0817550200
   65       -0.0817550200
   66       -0.0000000000
   67       -0.0000000000
   68       -0.0000000000
 Ene=          0.00507379
 Spin= Alpha
 Occup=        0.00000000
    1        0.0000000000
    2        0.0000000000
    3        0.0000000000
    4       -0.0000000000
    5       -0.0000000000
    6        0.0000000000
    7       -0.0000000000
    8        0.0000000000
    9       -0.0000000000
   10        0.0000000000
   11       -0.0000000000
   12       -0.0235633600
   13       -0.0134359800
   14       -0.0000000000
   15        0.0798527600
   16        0.0455325400
   17        0.0000000000
   18       -0.2968860000
   19       -0.1692862500
   20        0.0000000000
   21       -0.2935105400
   22       -0.1673615500
   23       -0.0000000000
   24       -0.0000000000
   25        0.0000000000
   26       -0.0047432800
   27       -0.0027046500
   28        0.0000000000
   29       -0.0000000000
   30       -0.0000000000
   31       -0.0000000000
   32       -0.0193803100
   33       -0.0110507700
   34       -0.0000000000
   35        0.0000000000
   36        0.0000000000
   37       -0.0000000000
   38        0.0000000000
   39       -0.0000000000
   40       -0.0000000000
   41        0.0000000000
   42        0.0000000000
   43       -0.0000000000
   44        0.0000000000
   45        0.0000000000
   46       -0.0235633600
   47       -0.0134359800
   48        0.0000000000
   49        0.0798527600
   50        0.0455325400
   51        0.0000000000
   52       -0.2968860000
   53       -0.1692862500
   54        0.0000000000
   55       -0.2935105400
   56       -0.1673615500
   57       -0.0000000000
   58        0.0000000000
   59       -0.0000000000
   60        0.0047432800
   61        0.0027046500
   62       -0.0000000000
   63       -0.0000000000
   64        0.0000000000
   65        0.0000000000
   66        0.0193803100
   67        0.0110507700
   68        0.0000000000
 Ene=          0.00507379
 Spin= Alpha
 Occup=        0.00000000
    1       -0.0000000000
    2        0.0000000000
    3        0.0000000000
    4       -0.0000000000
    5        0.0000000000
    6       -0.0000000000
    7       -0.0000000000
    8        0.0000000000
    9       -0.0000000000
   10        0.0000000000
   11        0.0000000000
   12       -0.0134359800
   13        0.0235633600
   14       -0.0000000000
   15        0.0455325400
   16       -0.0798527600
   17        0.0000000000
   18       -0.1692862500
   19        0.2968860000
   20        0.0000000000
   21       -0.1673615500
   22        0.2935105400
   23        0.0000000000
   24       -0.0000000000
   25       -0.0000000000
   26       -0.0027046500
   27        0.0047432800
   28        0.0000000000
   29       -0.0000000000
   30       -0.0000000000
   31       -0.0000000000
   32       -0.0110507700
   33        0.0193803100
   34       -0.0000000000
   35       -0.0000000000
   36        0.0000000000
   37       -0.0000000000
   38        0.0000000000
   39        0.0000000000
   40       -0.0000000000
   41        0.0000000000
   42       -0.0000000000
   43        0.0000000000
   44       -0.0000000000
   45       -0.0000000000
   46       -0.0134359800
   47        0.0235633600
   48        0.0000000000
   49        0.0455325400
   50       -0.0798527600
   51        0.0000000000
   52       -0.1692862500
   53        0.2968860000
   54        0.0000000000
   55       -0.1673615500
   56        0.2935105400
   57        0.0000000000
   58        0.0000000000
   59        0.0000000000
   60        0.0027046500
   61       -0.0047432800
   62       -0.0000000000
   63       -0.0000000000
   64       -0.0000000000
   65       -0.0000000000
   66        0.0110507700
   67       -0.0193803100
   68        0.0000000000
 Ene=          0.00762186
 Spin= Alpha
 Occup=        0.00000000
    1        0.0000000000
    2        0.0000000000
    3       -0.0000000000
    4       -0.0000000000
    5        0.0000000000
    6       -0.0000000000
    7        0.0000000000
    8       -0.0000000000
    9        0.0000000000
   10       -0.0000000000
   11        0.0000000000
   12       -0.5702100700
   13       -1.6043478200
   14        0.0000000000
   15        0.1099387900
   16        0.3093247000
   17        0.0000000000
   18       -0.0796800700
   19       -0.2241885000
   20       -0.0000000000
   21       -0.2391179900
   22       -0.6727843700
   23        0.0000000000
   24        0.0000000000
   25        0.0000000000
   26       -0.0896710100
   27       -0.2522991000
   28       -0.0000000000
   29        0.0000000000
   30       -0.0000000000
   31       -0.0000000000
   32        0.0208228700
   33        0.0585874000
   34       -0.0000000000
   35       -0.0000000000
   36       -0.0000000000
   37       -0.0000000000
   38       -0.0000000000
   39        0.0000000000
   40        0.0000000000
   41        0.0000000000
   42       -0.0000000000
   43       -0.0000000000
   44        0.0000000000
   45        0.0000000000
   46        0.5702100700
   47        1.6043478200
   48        0.0000000000
   49       -0.1099387900
   50       -0.3093247000
   51       -0.0000000000
   52        0.0796800700
   53        0.2241885000
   54        0.0000000000
   55        0.2391179900
   56        0.6727843700
   57        0.0000000000
   58       -0.0000000000
   59       -0.0000000000
   60       -0.0896710100
   61       -0.2522991000
   62       -0.0000000000
   63       -0.0000000000
   64       -0.0000000000
   65       -0.0000000000
   66        0.0208228700
   67        0.0585874000
   68        0.0000000000
 Ene=          0.00762186
 Spin= Alpha
 Occup=        0.00000000
    1       -0.0000000000
    2        0.0000000000
    3        0.0000000000
    4       -0.0000000000
    5       -0.0000000000
    6        0.0000000000
    7       -0.0000000000
    8        0.0000000000
    9       -0.0000000000
   10        0.0000000000
   11        0.0000000000
   12        1.6043478200
   13       -0.5702100700
   14        0.0000000000
   15       -0.3093247000
   16        0.1099387900
   17        0.0000000000
   18        0.2241885000
   19       -0.0796800700
   20       -0.0000000000
   21        0.6727843700
   22       -0.2391179900
   23        0.0000000000
   24        0.0000000000
   25       -0.0000000000
   26        0.2522991000
   27       -0.0896710100
   28        0.0000000000
   29        0.0000000000
   30       -0.0000000000
   31       -0.0000000000
   32       -0.0585874000
   33        0.0208228700
   34        0.0000000000
   35        0.0000000000
   36       -0.0000000000
   37       -0.0000000000
   38        0.0000000000
   39        0.0000000000
   40        0.0000000000
   41        0.0000000000
   42       -0.0000000000
   43        0.0000000000
   44       -0.0000000000
   45       -0.0000000000
   46       -1.6043478200
   47        0.5702100700
   48        0.0000000000
   49        0.3093247000
   50       -0.1099387900
   51        0.0000000000
   52       -0.2241885000
   53        0.0796800700
   54        0.0000000000
   55       -0.6727843700
   56        0.2391179900
   57        0.0000000000
   58       -0.0000000000
   59       -0.0000000000
   60        0.2522991000
   61       -0.0896710100
   62       -0.0000000000
   63       -0.0000000000
   64       -0.0000000000
   65       -0.0000000000
   66       -0.0585874000
   67        0.0208228700
   68       -0.0000000000
 Ene=          0.00826438
 Spin= Alpha
 Occup=        0.00000000
    1        0.0211211400
    2       -0.0085532900
    3       -3.5912800400
    4       -0.1102556100
    5        0.5313440200
    6        0.0242690700
    7        0.0807463300
    8       -0.0540031400
    9       -0.0018567300
   10       -0.0002180700
   11       -0.1212498500
   12       -0.0000000000
   13       -0.0000000000
   14        0.0296597400
   15        0.0000000000
   16        0.0000000000
   17       -1.2887653500
   18       -0.0000000000
   19       -0.0000000000
   20       -0.1582896400
   21        0.0000000000
   22       -0.0000000000
   23       -0.0984615000
   24       -0.1893599600
   25       -0.1893599600
   26       -0.0000000000
   27       -0.0000000000
   28       -0.0000000000
   29       -0.2644227100
   30       -0.1072255200
   31       -0.1072255200
   32        0.0000000000
   33        0.0000000000
   34        0.0000000000
   35       -0.0211211400
   36        0.0085532900
   37        3.5912800400
   38        0.1102556100
   39       -0.5313440200
   40       -0.0242690700
   41       -0.0807463300
   42        0.0540031400
   43        0.0018567300
   44        0.0002180700
   45       -0.1212498500
   46        0.0000000000
   47        0.0000000000
   48        0.0296597400
   49       -0.0000000000
   50       -0.0000000000
   51       -1.2887653500
   52        0.0000000000
   53        0.0000000000
   54       -0.1582896400
   55       -0.0000000000
   56        0.0000000000
   57        0.0984615000
   58        0.1893599600
   59        0.1893599600
   60       -0.0000000000
   61       -0.0000000000
   62       -0.0000000000
   63        0.2644227100
   64        0.1072255200
   65        0.1072255200
   66        0.0000000000
   67       -0.0000000000
   68        0.0000000000
 Ene=          0.00866972
 Spin= Alpha
 Occup=        0.00000000
    1        0.1887610000
    2       -0.1678609900
    3       -0.1961616900
    4        0.1832261200
    5       -0.1203452100
    6        0.0349283700
    7       -0.0140553500
    8        0.0053852900
    9       -0.0006389300
   10        0.0001391700
   11       -0.8454303800
   12       -0.0000000000
   13        0.0000000000
   14        0.2537262300
   15        0.0000000000
   16       -0.0000000000
   17       -0.2155445600
   18       -0.0000000000
   19        0.0000000000
   20        0.6751674200
   21        0.0000000000
   22       -0.0000000000
   23       -0.2253161700
   24        0.0121790800
   25        0.0121790800
   26       -0.0000000000
   27        0.0000000000
   28       -0.0000000000
   29        0.1364569800
   30        0.0389469500
   31        0.0389469500
   32        0.0000000000
   33       -0.0000000000
   34        0.0000000000
   35        0.1887610000
   36       -0.1678609900
   37       -0.1961616900
   38        0.1832261200
   39       -0.1203452100
   40        0.0349283700
   41       -0.0140553500
   42        0.0053852900
   43       -0.0006389300
   44        0.0001391700
   45        0.8454303800
   46        0.0000000000
   47       -0.0000000000
   48       -0.2537262300
   49       -0.0000000000
   50        0.0000000000
   51        0.2155445600
   52        0.0000000000
   53       -0.0000000000
   54       -0.6751674200
   55       -0.0000000000
   56        0.0000000000
   57       -0.2253161700
   58        0.0121790800
   59        0.0121790800
   60       -0.0000000000
   61        0.0000000000
   62       -0.0000000000
   63        0.1364569800
   64        0.0389469500
   65        0.0389469500
   66        0.0000000000
   67       -0.0000000000
   68        0.0000000000
 Ene=          0.01207000
 Spin= Alpha
 Occup=        0.00000000
    1       -0.0000000000
    2        0.0000000000
    3        0.0000000000
    4       -0.0000000000
    5        0.0000000000
    6       -0.0000000000
    7        0.0000000000
    8       -0.0000000000
    9       -0.0000000000
   10       -0.0000000000
   11        0.0000000000
   12        0.0348374900
   13       -0.0500992700
   14       -0.0000000000
   15       -0.1209329700
   16        0.1739118700
   17        0.0000000000
   18        0.5349717400
   19       -0.7693347500
   20       -0.0000000000
   21       -0.5294995900
   22        0.7614653400
   23        0.0000000000
   24        0.0000000000
   25        0.0000000000
   26        0.0055954300
   27       -0.0080467100
   28        0.0000000000
   29        0.0000000000
   30       -0.0000000000
   31       -0.0000000000
   32        0.0295438700
   33       -0.0424866000
   34       -0.0000000000
   35       -0.0000000000
   36        0.0000000000
   37        0.0000000000
   38       -0.0000000000
   39        0.0000000000
   40       -0.0000000000
   41        0.0000000000
   42       -0.0000000000
   43       -0.0000000000
   44        0.0000000000
   45       -0.0000000000
   46        0.0348374900
   47       -0.0500992700
   48        0.0000000000
   49       -0.1209329700
   50        0.1739118700
   51       -0.0000000000
   52        0.5349717400
   53       -0.7693347500
   54        0.0000000000
   55       -0.5294995900
   56        0.7614653400
   57        0.0000000000
   58       -0.0000000000
   59       -0.0000000000
   60       -0.0055954300
   61        0.0080467100
   62       -0.0000000000
   63       -0.0000000000
   64       -0.0000000000
   65       -0.0000000000
   66       -0.0295438700
   67        0.0424866000
   68        0.0000000000
 Ene=          0.01207000
 Spin= Alpha
 Occup=        0.00000000
    1       -0.0000000000
    2       -0.0000000000
    3       -0.0000000000
    4       -0.0000000000
    5        0.0000000000
    6       -0.0000000000
    7        0.0000000000
    8       -0.0000000000
    9        0.0000000000
   10       -0.0000000000
   11        0.0000000000
   12       -0.0500992700
   13       -0.0348374900
   14       -0.0000000000
   15        0.1739118700
   16        0.1209329700
   17       -0.0000000000
   18       -0.7693347500
   19       -0.5349717400
   20       -0.0000000000
   21        0.7614653400
   22        0.5294995900
   23        0.0000000000
   24        0.0000000000
   25        0.0000000000
   26       -0.0080467100
   27       -0.0055954300
   28        0.0000000000
   29        0.0000000000
   30       -0.0000000000
   31       -0.0000000000
   32       -0.0424866000
   33       -0.0295438700
   34       -0.0000000000
   35       -0.0000000000
   36       -0.0000000000
   37        0.0000000000
   38       -0.0000000000
   39        0.0000000000
   40        0.0000000000
   41        0.0000000000
   42       -0.0000000000
   43        0.0000000000
   44       -0.0000000000
   45       -0.0000000000
   46       -0.0500992700
   47       -0.0348374900
   48       -0.0000000000
   49        0.1739118700
   50        0.1209329700
   51       -0.0000000000
   52       -0.7693347500
   53       -0.5349717400
   54       -0.0000000000
   55        0.7614653400
   56        0.5294995900
   57        0.0000000000
   58       -0.0000000000
   59       -0.0000000000
   60        0.0080467100
   61        0.0055954300
   62       -0.0000000000
   63       -0.0000000000
   64       -0.0000000000
   65       -0.0000000000
   66        0.0424866000
   67        0.0295438700
   68        0.0000000000
 Ene=          0.01221850
 Spin= Alpha
 Occup=        0.00000000
    1       -0.4391678800
    2        0.4249338800
    3        0.2687456300
    4       -1.6947990700
    5        1.0859152500
    6       -0.0314084500
    7        0.1274917500
    8       -0.0780648100
    9       -0.0012672600
   10       -0.0005202100
   11        2.2559390700
   12        0.0000000000
   13       -0.0000000000
   14       -0.4386589300
   15       -0.0000000000
   16        0.0000000000
   17        0.5619659500
   18        0.0000000000
   19       -0.0000000000
   20       -0.0916122300
   21        0.0000000000
   22       -0.0000000000
   23        0.5881406600
   24       -0.0404539300
   25       -0.0404539300
   26        0.0000000000
   27       -0.0000000000
   28       -0.0000000000
   29       -0.2784933600
   30       -0.1438177800
   31       -0.1438177800
   32       -0.0000000000
   33        0.0000000000
   34        0.0000000000
   35       -0.4391678800
   36        0.4249338800
   37        0.2687456300
   38       -1.6947990700
   39        1.0859152500
   40       -0.0314084500
   41        0.1274917500
   42       -0.0780648100
   43       -0.0012672600
   44       -0.0005202100
   45       -2.2559390700
   46       -0.0000000000
   47        0.0000000000
   48        0.4386589300
   49        0.0000000000
   50       -0.0000000000
   51       -0.5619659500
   52       -0.0000000000
   53        0.0000000000
   54        0.0916122300
   55        0.0000000000
   56       -0.0000000000
   57        0.5881406600
   58       -0.0404539300
   59       -0.0404539300
   60        0.0000000000
   61       -0.0000000000
   62       -0.0000000000
   63       -0.2784933600
   64       -0.1438177800
   65       -0.1438177800
   66       -0.0000000000
   67        0.0000000000
   68        0.0000000000
 Ene=          0.01240470
 Spin= Alpha
 Occup=        0.00000000
    1        0.0171400200
    2       -0.0022650700
    3       -2.7203712200
    4        0.1117026700
    5       -0.0209753600
    6       -0.0763828400
    7       -0.0122065600
    8        0.0154739300
    9        0.0020327400
   10       -0.0001500300
   11       -0.0978710200
   12       -0.0000000000
   13        0.0000000000
   14        0.0106525200
   15        0.0000000000
   16       -0.0000000000
   17       -0.9426493000
   18        0.0000000000
   19        0.0000000000
   20       -1.2663191400
   21       -0.0000000000
   22       -0.0000000000
   23       -0.0870722600
   24       -0.1477815600
   25       -0.1477815600
   26       -0.0000000000
   27        0.0000000000
   28        0.0000000000
   29       -0.2147136300
   30       -0.1061929900
   31       -0.1061929900
   32        0.0000000000
   33       -0.0000000000
   34       -0.0000000000
   35       -0.0171400200
   36        0.0022650700
   37        2.7203712200
   38       -0.1117026700
   39        0.0209753600
   40        0.0763828400
   41        0.0122065600
   42       -0.0154739300
   43       -0.0020327400
   44        0.0001500300
   45       -0.0978710200
   46        0.0000000000
   47       -0.0000000000
   48        0.0106525200
   49       -0.0000000000
   50        0.0000000000
   51       -0.9426493000
   52        0.0000000000
   53       -0.0000000000
   54       -1.2663191400
   55       -0.0000000000
   56        0.0000000000
   57        0.0870722600
   58        0.1477815600
   59        0.1477815600
   60       -0.0000000000
   61        0.0000000000
   62        0.0000000000
   63        0.2147136300
   64        0.1061929900
   65        0.1061929900
   66        0.0000000000
   67       -0.0000000000
   68       -0.0000000000
 Ene=          0.01747310
 Spin= Alpha
 Occup=        0.00000000
    1       -0.0099817200
    2        0.0252782900
    3        5.2163425000
    4       -3.1076636000
    5        1.4000402000
    6       -0.1158467200
    7        0.1208808200
    8       -0.0658262200
    9        0.0006009500
   10       -0.0006779400
   11        0.0593791000
   12        0.0000000000
   13       -0.0000000000
   14       -0.0359371300
   15       -0.0000000000
   16        0.0000000000
   17        1.8225913700
   18        0.0000000000
   19       -0.0000000000
   20       -0.5395568800
   21       -0.0000000000
   22        0.0000000000
   23        0.0141716800
   24        0.1143530800
   25        0.1143530800
   26        0.0000000000
   27       -0.0000000000
   28        0.0000000000
   29        0.1528314700
   30       -0.0121217600
   31       -0.0121217600
   32       -0.0000000000
   33        0.0000000000
   34       -0.0000000000
   35        0.0099817200
   36       -0.0252782900
   37       -5.2163425000
   38        3.1076636000
   39       -1.4000402000
   40        0.1158467200
   41       -0.1208808200
   42        0.0658262200
   43       -0.0006009500
   44        0.0006779400
   45        0.0593791000
   46       -0.0000000000
   47        0.0000000000
   48       -0.0359371300
   49        0.0000000000
   50       -0.0000000000
   51        1.8225913700
   52       -0.0000000000
   53        0.0000000000
   54       -0.5395568800
   55        0.0000000000
   56       -0.0000000000
   57       -0.0141716800
   58       -0.1143530800
   59       -0.1143530800
   60        0.0000000000
   61       -0.0000000000
   62       -0.0000000000
   63       -0.1528314700
   64        0.0121217600
   65        0.0121217600
   66       -0.0000000000
   67        0.0000000000
   68        0.0000000000
 Ene=          0.01796620
 Spin= Alpha
 Occup=        0.00000000
    1        0.0000000000
    2        0.0000000000
    3        0.0000000000
    4       -0.0000000000
    5        0.0000000000
    6       -0.0000000000
    7        0.0000000000
    8       -0.0000000000
    9       -0.0000000000
   10        0.0000000000
   11        0.0000000000
   12       -9.6702929000
   13       -6.1024886500
   14        0.0000000000
   15        2.0804788400
   16        1.3128970000
   17        0.0000000000
   18       -1.6126834600
   19       -1.0176922900
   20       -0.0000000000
   21        0.7687775900
   22        0.4851411000
   23        0.0000000000
   24        0.0000000000
   25        0.0000000000
   26       -1.5254276300
   27       -0.9626290500
   28       -0.0000000000
   29        0.0000000000
   30        0.0000000000
   31        0.0000000000
   32        0.4213730400
   33        0.2659096500
   34        0.0000000000
   35       -0.0000000000
   36       -0.0000000000
   37       -0.0000000000
   38        0.0000000000
   39       -0.0000000000
   40        0.0000000000
   41       -0.0000000000
   42        0.0000000000
   43       -0.0000000000
   44        0.0000000000
   45        0.0000000000
   46        9.6702929000
   47        6.1024886500
   48        0.0000000000
   49       -2.0804788400
   50       -1.3128970000
   51       -0.0000000000
   52        1.6126834600
   53        1.0176922900
   54       -0.0000000000
   55       -0.7687775900
   56       -0.4851411000
   57       -0.0000000000
   58       -0.0000000000
   59       -0.0000000000
   60       -1.5254276300
   61       -0.9626290500
   62        0.0000000000
   63       -0.0000000000
   64       -0.0000000000
   65       -0.0000000000
   66        0.4213730400
   67        0.2659096500
   68       -0.0000000000
 Ene=          0.01796620
 Spin= Alpha
 Occup=        0.00000000
    1       -0.0000000000
    2        0.0000000000
    3       -0.0000000000
    4        0.0000000000
    5       -0.0000000000
    6        0.0000000000
    7       -0.0000000000
    8        0.0000000000
    9       -0.0000000000
   10        0.0000000000
   11        0.0000000000
   12        6.1024886500
   13       -9.6702929000
   14        0.0000000000
   15       -1.3128970000
   16        2.0804788400