 Molden2AIM, Version 3.1.0 (02/25/2015)           Time: Thu Oct 17 19:55:31 2024
GAUSSIAN             68 MOL ORBITALS     68 PRIMITIVES        2 NUCLEI
  Be   1    (CENTRE  1)   0.00000000  0.00000000  0.00000000  CHARGE =  4.0
  Be   2    (CENTRE  2)  47.00000000  0.00000000  0.00000000  CHARGE =  4.0
CENTRE ASSIGNMENTS    1  1  1  1  1  1  1  1  1  1  1  1  1  1  1  1  1  1  1  1
CENTRE ASSIGNMENTS    1  1  1  1  1  1  1  1  1  1  1  1  1  1  2  2  2  2  2  2
CENTRE ASSIGNMENTS    2  2  2  2  2  2  2  2  2  2  2  2  2  2  2  2  2  2  2  2
CENTRE ASSIGNMENTS    2  2  2  2  2  2  2  2
TYPE ASSIGNMENTS      1  1  1  1  1  1  1  1  1  1  2  3  4  2  3  4  2  3  4  2
TYPE ASSIGNMENTS      3  4  5  6  7  8  9 10  5  6  7  8  9 10  1  1  1  1  1  1
TYPE ASSIGNMENTS      1  1  1  1  2  3  4  2  3  4  2  3  4  2  3  4  5  6  7  8
TYPE ASSIGNMENTS      9 10  5  6  7  8  9 10
EXPONENTS  0.1000000D-03 0.3000000D-03 0.9000000D-03 0.2700000D-02 0.8100000D-02
EXPONENTS  0.2430000D-01 0.7290000D-01 0.2187000D+00 0.6561000D+00 0.1968300D+01
EXPONENTS  0.1000000D-03 0.1000000D-03 0.1000000D-03 0.3000000D-03 0.3000000D-03
EXPONENTS  0.3000000D-03 0.9000000D-03 0.9000000D-03 0.9000000D-03 0.2700000D-02
EXPONENTS  0.2700000D-02 0.2700000D-02 0.1000000D-03 0.1000000D-03 0.1000000D-03
EXPONENTS  0.1000000D-03 0.1000000D-03 0.1000000D-03 0.3000000D-03 0.3000000D-03
EXPONENTS  0.3000000D-03 0.3000000D-03 0.3000000D-03 0.3000000D-03 0.1000000D-03
EXPONENTS  0.3000000D-03 0.9000000D-03 0.2700000D-02 0.8100000D-02 0.2430000D-01
EXPONENTS  0.7290000D-01 0.2187000D+00 0.6561000D+00 0.1968300D+01 0.1000000D-03
EXPONENTS  0.1000000D-03 0.1000000D-03 0.3000000D-03 0.3000000D-03 0.3000000D-03
EXPONENTS  0.9000000D-03 0.9000000D-03 0.9000000D-03 0.2700000D-02 0.2700000D-02
EXPONENTS  0.2700000D-02 0.1000000D-03 0.1000000D-03 0.1000000D-03 0.1000000D-03
EXPONENTS  0.1000000D-03 0.1000000D-03 0.3000000D-03 0.3000000D-03 0.3000000D-03
EXPONENTS  0.3000000D-03 0.3000000D-03 0.3000000D-03
MO    1     MO 0.0        OCC NO =    1.0000000  ORB. ENERGY =   -0.001252
 -0.93524134D-05 -0.84780971D-04  0.30827365D-03  0.19045298D-02  0.48601334D-02
  0.82204901D-02  0.11297877D-01 -0.20943916D-01 -0.33160543D-02  0.12153758D-03
 -0.21827774D-06 -0.00000000D+00 -0.00000000D+00  0.94229101D-06 -0.00000000D+00
  0.00000000D+00 -0.64930049D-06 -0.00000000D+00 -0.00000000D+00  0.13184088D-03
  0.00000000D+00  0.00000000D+00 -0.78930885D-09  0.51055537D-09  0.51055537D-09
 -0.00000000D+00 -0.00000000D+00 -0.00000000D+00  0.30175549D-07  0.14124637D-07
  0.14124637D-07 -0.00000000D+00 -0.00000000D+00  0.00000000D+00 -0.93524134D-05
 -0.84780971D-04  0.30827365D-03  0.19045298D-02  0.48601334D-02  0.82204901D-02
  0.11297877D-01 -0.20943916D-01 -0.33160543D-02  0.12153758D-03  0.21827774D-06
  0.00000000D+00  0.00000000D+00 -0.94229101D-06  0.00000000D+00 -0.00000000D+00
  0.64930049D-06  0.00000000D+00  0.00000000D+00 -0.13184088D-03 -0.00000000D+00
 -0.00000000D+00 -0.78930885D-09  0.51055537D-09  0.51055537D-09 -0.00000000D+00
 -0.00000000D+00  0.00000000D+00  0.30175549D-07  0.14124637D-07  0.14124637D-07
 -0.00000000D+00 -0.00000000D+00  0.00000000D+00
MO    2     MO 0.0        OCC NO =    0.0000000  ORB. ENERGY =   -0.000944
  0.14000094D-04 -0.21632438D-02  0.26487819D-04 -0.24567497D-02 -0.48195394D-02
 -0.91809972D-02 -0.11746541D-01  0.22130128D-01  0.36526528D-02 -0.17670441D-03
 -0.22693996D-06  0.00000000D+00  0.00000000D+00 -0.35992062D-04 -0.00000000D+00
 -0.00000000D+00  0.17454472D-04  0.00000000D+00  0.00000000D+00 -0.15102134D-03
 -0.00000000D+00 -0.00000000D+00 -0.25570711D-08 -0.23290532D-08 -0.23290532D-08
  0.00000000D+00  0.00000000D+00  0.00000000D+00 -0.21318615D-06 -0.40780705D-07
 -0.40780705D-07 -0.00000000D+00 -0.00000000D+00 -0.00000000D+00 -0.14000094D-04
  0.21632438D-02 -0.26487819D-04  0.24567497D-02  0.48195394D-02  0.91809972D-02
  0.11746541D-01 -0.22130128D-01 -0.36526528D-02  0.17670441D-03 -0.22693996D-06
 -0.00000000D+00 -0.00000000D+00 -0.35992062D-04  0.00000000D+00  0.00000000D+00
  0.17454472D-04 -0.00000000D+00 -0.00000000D+00 -0.15102134D-03  0.00000000D+00
  0.00000000D+00  0.25570711D-08  0.23290532D-08  0.23290532D-08  0.00000000D+00
  0.00000000D+00 -0.00000000D+00  0.21318615D-06  0.40780705D-07  0.40780705D-07
 -0.00000000D+00 -0.00000000D+00  0.00000000D+00
MO    3     MO 0.0        OCC NO =    0.0000000  ORB. ENERGY =    0.004879
 -0.43432975D-03 -0.24919444D-03  0.34552678D-02 -0.44945546D-02 -0.20186400D-02
 -0.59684484D-02 -0.51622999D-02  0.10732442D-01  0.21875183D-02 -0.21665240D-03
  0.12432714D-04 -0.00000000D+00  0.00000000D+00 -0.16290613D-04  0.00000000D+00
  0.00000000D+00  0.10229305D-03  0.00000000D+00 -0.00000000D+00 -0.40566514D-04
 -0.00000000D+00  0.00000000D+00  0.63617379D-07  0.48298452D-08  0.48298452D-08
 -0.00000000D+00  0.00000000D+00 -0.00000000D+00  0.11080461D-07  0.10865848D-06
  0.10865848D-06  0.00000000D+00  0.00000000D+00  0.00000000D+00 -0.43432975D-03
 -0.24919444D-03  0.34552678D-02 -0.44945546D-02 -0.20186400D-02 -0.59684484D-02
 -0.51622999D-02  0.10732442D-01  0.21875183D-02 -0.21665240D-03 -0.12432714D-04
  0.00000000D+00 -0.00000000D+00  0.16290613D-04 -0.00000000D+00 -0.00000000D+00
 -0.10229305D-03 -0.00000000D+00  0.00000000D+00  0.40566514D-04  0.00000000D+00
 -0.00000000D+00  0.63617379D-07  0.48298452D-08  0.48298452D-08 -0.00000000D+00
  0.00000000D+00  0.00000000D+00  0.11080461D-07  0.10865848D-06  0.10865848D-06
  0.00000000D+00  0.00000000D+00 -0.00000000D+00
MO    4     MO 0.0        OCC NO =    0.0000000  ORB. ENERGY =    0.010316
 -0.00000000D+00 -0.00000000D+00 -0.00000000D+00 -0.00000000D+00  0.00000000D+00
  0.00000000D+00  0.00000000D+00 -0.00000000D+00  0.00000000D+00  0.00000000D+00
  0.00000000D+00 -0.98991511D-07 -0.57119238D-06 -0.00000000D+00  0.10703694D-05
  0.61761497D-05  0.00000000D+00 -0.14065478D-04 -0.81159366D-04 -0.00000000D+00
 -0.55533207D-04 -0.32043279D-03  0.00000000D+00 -0.00000000D+00 -0.00000000D+00
  0.17631649D-08  0.10173665D-07  0.00000000D+00 -0.00000000D+00 -0.00000000D+00
 -0.00000000D+00 -0.22796114D-07 -0.13153617D-06 -0.00000000D+00 -0.00000000D+00
  0.00000000D+00  0.00000000D+00  0.00000000D+00 -0.00000000D+00 -0.00000000D+00
 -0.00000000D+00  0.00000000D+00  0.00000000D+00 -0.00000000D+00 -0.00000000D+00
 -0.98991511D-07 -0.57119238D-06 -0.00000000D+00  0.10703694D-05  0.61761497D-05
 -0.00000000D+00 -0.14065478D-04 -0.81159366D-04 -0.00000000D+00 -0.55533207D-04
 -0.32043279D-03  0.00000000D+00  0.00000000D+00  0.00000000D+00 -0.17631649D-08
 -0.10173665D-07 -0.00000000D+00  0.00000000D+00  0.00000000D+00  0.00000000D+00
  0.22796114D-07  0.13153617D-06  0.00000000D+00
MO    5     MO 0.0        OCC NO =    0.0000000  ORB. ENERGY =    0.010316
 -0.00000000D+00  0.00000000D+00 -0.00000000D+00 -0.00000000D+00  0.00000000D+00
  0.00000000D+00  0.00000000D+00 -0.00000000D+00 -0.00000000D+00  0.00000000D+00
  0.00000000D+00 -0.57119238D-06  0.98991511D-07  0.00000000D+00  0.61761497D-05
 -0.10703694D-05 -0.00000000D+00 -0.81159366D-04  0.14065478D-04 -0.00000000D+00
 -0.32043279D-03  0.55533207D-04  0.00000000D+00  0.00000000D+00  0.00000000D+00
  0.10173665D-07 -0.17631649D-08 -0.00000000D+00  0.00000000D+00  0.00000000D+00
  0.00000000D+00 -0.13153617D-06  0.22796114D-07  0.00000000D+00  0.00000000D+00
 -0.00000000D+00  0.00000000D+00 -0.00000000D+00 -0.00000000D+00 -0.00000000D+00
 -0.00000000D+00  0.00000000D+00  0.00000000D+00 -0.00000000D+00 -0.00000000D+00
 -0.57119238D-06  0.98991511D-07  0.00000000D+00  0.61761497D-05 -0.10703694D-05
 -0.00000000D+00 -0.81159366D-04  0.14065478D-04  0.00000000D+00 -0.32043279D-03
  0.55533207D-04  0.00000000D+00 -0.00000000D+00 -0.00000000D+00 -0.10173665D-07
  0.17631649D-08  0.00000000D+00 -0.00000000D+00 -0.00000000D+00 -0.00000000D+00
  0.13153617D-06 -0.22796114D-07  0.00000000D+00
MO    6     MO 0.0        OCC NO =    0.0000000  ORB. ENERGY =    0.010863
 -0.41389337D-04  0.12056093D-01 -0.45046090D-02 -0.25489874D-02  0.11249597D-01
  0.27189915D-02  0.90921623D-02 -0.14592535D-01 -0.14787418D-02 -0.19900564D-03
 -0.13827510D-05  0.00000000D+00  0.00000000D+00  0.18746756D-03 -0.00000000D+00
 -0.00000000D+00 -0.93114010D-04  0.00000000D+00  0.00000000D+00 -0.39981485D-03
  0.00000000D+00  0.00000000D+00 -0.14050102D-07 -0.10668249D-07 -0.10668249D-07
  0.00000000D+00  0.00000000D+00 -0.00000000D+00  0.76892349D-06 -0.13289395D-06
 -0.13289395D-06 -0.00000000D+00 -0.00000000D+00  0.00000000D+00  0.41389337D-04
 -0.12056093D-01  0.45046090D-02  0.25489874D-02 -0.11249597D-01 -0.27189915D-02
 -0.90921623D-02  0.14592535D-01  0.14787418D-02  0.19900564D-03 -0.13827510D-05
 -0.00000000D+00 -0.00000000D+00  0.18746756D-03  0.00000000D+00  0.00000000D+00
 -0.93114010D-04  0.00000000D+00 -0.00000000D+00 -0.39981485D-03  0.00000000D+00
  0.00000000D+00  0.14050102D-07  0.10668249D-07  0.10668249D-07  0.00000000D+00
  0.00000000D+00  0.00000000D+00 -0.76892349D-06  0.13289395D-06  0.13289395D-06
 -0.00000000D+00 -0.00000000D+00 -0.00000000D+00
MO    7     MO 0.0        OCC NO =    0.0000000  ORB. ENERGY =    0.011674
 -0.11003178D-03  0.46130031D-03  0.18600391D-02 -0.11971754D-01  0.15416171D-01
 -0.20864595D-02  0.94821316D-02 -0.12600312D-01 -0.10230701D-03 -0.55384752D-03
  0.14335615D-04  0.00000000D+00  0.00000000D+00 -0.14999748D-04  0.00000000D+00
  0.00000000D+00  0.14786286D-03  0.00000000D+00 -0.00000000D+00 -0.71450233D-03
  0.00000000D+00 -0.00000000D+00  0.60401765D-07 -0.75774450D-08 -0.75774450D-08
  0.00000000D+00  0.00000000D+00 -0.00000000D+00 -0.22819470D-06 -0.17132218D-06
 -0.17132218D-06  0.00000000D+00  0.00000000D+00  0.00000000D+00 -0.11003178D-03
  0.46130029D-03  0.18600391D-02 -0.11971754D-01  0.15416171D-01 -0.20864595D-02
  0.94821316D-02 -0.12600312D-01 -0.10230701D-03 -0.55384752D-03 -0.14335615D-04
 -0.00000000D+00 -0.00000000D+00  0.14999748D-04 -0.00000000D+00 -0.00000000D+00
 -0.14786286D-03  0.00000000D+00 -0.00000000D+00  0.71450233D-03  0.00000000D+00
  0.00000000D+00  0.60401765D-07 -0.75774450D-08 -0.75774450D-08  0.00000000D+00
  0.00000000D+00  0.00000000D+00 -0.22819470D-06 -0.17132218D-06 -0.17132218D-06
  0.00000000D+00  0.00000000D+00 -0.00000000D+00
MO    8     MO 0.0        OCC NO =    0.0000000  ORB. ENERGY =    0.012508
  0.00000000D+00 -0.00000000D+00  0.00000000D+00 -0.00000000D+00  0.00000000D+00
 -0.00000000D+00  0.00000000D+00 -0.00000000D+00  0.00000000D+00 -0.00000000D+00
  0.00000000D+00 -0.15036325D-05 -0.10303659D-05 -0.00000000D+00  0.46347037D-05
  0.31759358D-05  0.00000000D+00 -0.28227834D-05 -0.19343162D-05 -0.00000000D+00
  0.52995689D-03  0.36315354D-03  0.00000000D+00 -0.00000000D+00 -0.00000000D+00
 -0.80429554D-08 -0.55114426D-08 -0.00000000D+00 -0.00000000D+00 -0.00000000D+00
 -0.00000000D+00  0.75034600D-07  0.51417554D-07  0.00000000D+00 -0.00000000D+00
  0.00000000D+00 -0.00000000D+00 -0.00000000D+00  0.00000000D+00 -0.00000000D+00
  0.00000000D+00 -0.00000000D+00 -0.00000000D+00  0.00000000D+00 -0.00000000D+00
  0.15036325D-05  0.10303659D-05 -0.00000000D+00 -0.46347037D-05 -0.31759358D-05
  0.00000000D+00  0.28227834D-05  0.19343162D-05  0.00000000D+00 -0.52995689D-03
 -0.36315354D-03  0.00000000D+00  0.00000000D+00  0.00000000D+00 -0.80429554D-08
 -0.55114426D-08  0.00000000D+00  0.00000000D+00  0.00000000D+00  0.00000000D+00
  0.75034600D-07  0.51417554D-07 -0.00000000D+00
MO    9     MO 0.0        OCC NO =    0.0000000  ORB. ENERGY =    0.012508
 -0.00000000D+00 -0.00000000D+00 -0.00000000D+00 -0.00000000D+00  0.00000000D+00
  0.00000000D+00 -0.00000000D+00 -0.00000000D+00  0.00000000D+00 -0.00000000D+00
  0.00000000D+00  0.10303659D-05 -0.15036325D-05 -0.00000000D+00 -0.31759358D-05
  0.46347037D-05  0.00000000D+00  0.19343162D-05 -0.28227834D-05 -0.00000000D+00
 -0.36315354D-03  0.52995689D-03  0.00000000D+00 -0.00000000D+00 -0.00000000D+00
  0.55114426D-08 -0.80429554D-08  0.00000000D+00 -0.00000000D+00 -0.00000000D+00
 -0.00000000D+00 -0.51417554D-07  0.75034600D-07 -0.00000000D+00 -0.00000000D+00
  0.00000000D+00 -0.00000000D+00 -0.00000000D+00  0.00000000D+00  0.00000000D+00
  0.00000000D+00 -0.00000000D+00  0.00000000D+00  0.00000000D+00 -0.00000000D+00
 -0.10303659D-05  0.15036325D-05 -0.00000000D+00  0.31759358D-05 -0.46347037D-05
  0.00000000D+00 -0.19343162D-05  0.28227834D-05  0.00000000D+00  0.36315354D-03
 -0.52995689D-03  0.00000000D+00  0.00000000D+00  0.00000000D+00  0.55114426D-08
 -0.80429554D-08 -0.00000000D+00  0.00000000D+00  0.00000000D+00  0.00000000D+00
 -0.51417554D-07  0.75034600D-07  0.00000000D+00
MO   10     MO 0.0        OCC NO =    0.0000000  ORB. ENERGY =    0.017048
  0.00000000D+00 -0.00000000D+00  0.00000000D+00 -0.00000000D+00  0.00000000D+00
 -0.00000000D+00  0.00000000D+00 -0.00000000D+00  0.00000000D+00 -0.00000000D+00
 -0.00000000D+00  0.11053359D-05 -0.39299435D-07 -0.00000000D+00 -0.12934542D-04
  0.45987773D-06  0.00000000D+00  0.21328929D-03 -0.75833404D-05 -0.00000000D+00
 -0.84480783D-03  0.30036503D-04 -0.00000000D+00 -0.00000000D+00 -0.00000000D+00
 -0.15702395D-07  0.55828785D-09 -0.00000000D+00 -0.00000000D+00 -0.00000000D+00
 -0.00000000D+00  0.22259295D-06 -0.79141210D-08  0.00000000D+00 -0.00000000D+00
  0.00000000D+00 -0.00000000D+00  0.00000000D+00 -0.00000000D+00  0.00000000D+00
 -0.00000000D+00  0.00000000D+00 -0.00000000D+00  0.00000000D+00 -0.00000000D+00
  0.11053359D-05 -0.39299435D-07 -0.00000000D+00 -0.12934542D-04  0.45987773D-06
  0.00000000D+00  0.21328929D-03 -0.75833404D-05 -0.00000000D+00 -0.84480783D-03
  0.30036503D-04  0.00000000D+00  0.00000000D+00  0.00000000D+00  0.15702395D-07
 -0.55828785D-09 -0.00000000D+00  0.00000000D+00  0.00000000D+00  0.00000000D+00
 -0.22259295D-06  0.79141210D-08 -0.00000000D+00
MO   11     MO 0.0        OCC NO =    0.0000000  ORB. ENERGY =    0.017048
 -0.00000000D+00 -0.00000000D+00 -0.00000000D+00  0.00000000D+00 -0.00000000D+00
  0.00000000D+00 -0.00000000D+00  0.00000000D+00 -0.00000000D+00  0.00000000D+00
  0.00000000D+00  0.39299435D-07  0.11053359D-05 -0.00000000D+00 -0.45987773D-06
 -0.12934542D-04 -0.00000000D+00  0.75833404D-05  0.21328929D-03  0.00000000D+00
 -0.30036503D-04 -0.84480783D-03  0.00000000D+00 -0.00000000D+00 -0.00000000D+00
 -0.55828785D-09 -0.15702395D-07 -0.00000000D+00 -0.00000000D+00 -0.00000000D+00
 -0.00000000D+00  0.79141210D-08  0.22259295D-06  0.00000000D+00 -0.00000000D+00
  0.00000000D+00  0.00000000D+00 -0.00000000D+00  0.00000000D+00 -0.00000000D+00
  0.00000000D+00 -0.00000000D+00  0.00000000D+00 -0.00000000D+00 -0.00000000D+00
  0.39299435D-07  0.11053359D-05 -0.00000000D+00 -0.45987773D-06 -0.12934542D-04
 -0.00000000D+00  0.75833404D-05  0.21328929D-03  0.00000000D+00 -0.30036503D-04
 -0.84480783D-03  0.00000000D+00  0.00000000D+00  0.00000000D+00  0.55828785D-09
  0.15702395D-07  0.00000000D+00  0.00000000D+00  0.00000000D+00  0.00000000D+00
 -0.79141210D-08 -0.22259295D-06 -0.00000000D+00
MO   12     MO 0.0        OCC NO =    0.0000000  ORB. ENERGY =    0.017221
 -0.17006748D-03  0.34262387D-01 -0.10066884D-01  0.12706936D-01 -0.97463552D-02
  0.21273085D-02 -0.44108824D-02  0.52787228D-02 -0.24712461D-03  0.32702159D-03
 -0.18129973D-06 -0.00000000D+00 -0.00000000D+00  0.55162708D-03 -0.00000000D+00
 -0.00000000D+00 -0.36028229D-03  0.00000000D+00 -0.00000000D+00  0.65660264D-03
 -0.00000000D+00  0.00000000D+00  0.22221241D-08  0.24315546D-08  0.24315546D-08
 -0.00000000D+00 -0.00000000D+00 -0.00000000D+00  0.27612972D-05  0.14935646D-06
  0.14935646D-06  0.00000000D+00 -0.00000000D+00  0.00000000D+00  0.17006748D-03
 -0.34262387D-01  0.10066884D-01 -0.12706936D-01  0.97463552D-02 -0.21273085D-02
  0.44108824D-02 -0.52787228D-02  0.24712461D-03 -0.32702159D-03 -0.18129973D-06
  0.00000000D+00  0.00000000D+00  0.55162708D-03 -0.00000000D+00  0.00000000D+00
 -0.36028229D-03  0.00000000D+00 -0.00000000D+00  0.65660264D-03 -0.00000000D+00
  0.00000000D+00 -0.22221241D-08 -0.24315546D-08 -0.24315546D-08 -0.00000000D+00
 -0.00000000D+00  0.00000000D+00 -0.27612972D-05 -0.14935646D-06 -0.14935646D-06
 -0.00000000D+00 -0.00000000D+00 -0.00000000D+00
MO   13     MO 0.0        OCC NO =    0.0000000  ORB. ENERGY =    0.019931
 -0.16534977D-03 -0.54486605D-04  0.67839030D-03 -0.93611330D-02  0.13474323D-01
  0.10122175D-02  0.73109059D-02 -0.11066877D-01 -0.87004342D-03 -0.23851542D-03
  0.52660999D-05  0.00000000D+00 -0.00000000D+00 -0.39210397D-05  0.00000000D+00
 -0.00000000D+00  0.36946357D-04  0.00000000D+00  0.00000000D+00  0.27962609D-03
 -0.00000000D+00  0.00000000D+00  0.25999841D-07  0.16372471D-08  0.16372471D-08
  0.00000000D+00 -0.00000000D+00 -0.00000000D+00  0.28342585D-07  0.21909447D-07
  0.21909447D-07  0.00000000D+00 -0.00000000D+00  0.00000000D+00 -0.16534977D-03
 -0.54486605D-04  0.67839030D-03 -0.93611330D-02  0.13474323D-01  0.10122175D-02
  0.73109059D-02 -0.11066877D-01 -0.87004342D-03 -0.23851542D-03 -0.52660999D-05
 -0.00000000D+00  0.00000000D+00  0.39210397D-05 -0.00000000D+00  0.00000000D+00
 -0.36946357D-04 -0.00000000D+00  0.00000000D+00 -0.27962609D-03  0.00000000D+00
 -0.00000000D+00  0.25999841D-07  0.16372471D-08  0.16372471D-08  0.00000000D+00
 -0.00000000D+00  0.00000000D+00  0.28342585D-07  0.21909447D-07  0.21909447D-07
  0.00000000D+00 -0.00000000D+00 -0.00000000D+00
MO   14     MO 0.0        OCC NO =    0.0000000  ORB. ENERGY =    0.022064
  0.63536346D-04 -0.14512646D-01  0.78837107D-02 -0.16557846D-01  0.17086135D-01
  0.45952972D-03  0.81984844D-02 -0.12061863D-01 -0.79777750D-03 -0.30999070D-03
  0.73464597D-06  0.00000000D+00 -0.00000000D+00 -0.23203496D-03 -0.00000000D+00
  0.00000000D+00  0.22804938D-03  0.00000000D+00  0.00000000D+00  0.26679530D-03
 -0.00000000D+00 -0.00000000D+00  0.45534454D-08  0.60406337D-08  0.60406337D-08
  0.00000000D+00 -0.00000000D+00  0.00000000D+00 -0.10686524D-05 -0.28018759D-08
 -0.28018759D-08 -0.00000000D+00  0.00000000D+00 -0.00000000D+00 -0.63536346D-04
  0.14512646D-01 -0.78837107D-02  0.16557846D-01 -0.17086135D-01 -0.45952972D-03
 -0.81984844D-02  0.12061863D-01  0.79777750D-03  0.30999070D-03  0.73464597D-06
 -0.00000000D+00  0.00000000D+00 -0.23203496D-03  0.00000000D+00 -0.00000000D+00
  0.22804938D-03 -0.00000000D+00 -0.00000000D+00  0.26679530D-03  0.00000000D+00
  0.00000000D+00 -0.45534454D-08 -0.60406337D-08 -0.60406337D-08  0.00000000D+00
 -0.00000000D+00 -0.00000000D+00  0.10686524D-05  0.28018759D-08  0.28018759D-08
 -0.00000000D+00  0.00000000D+00  0.00000000D+00
MO   15     MO 0.0        OCC NO =    0.0000000  ORB. ENERGY =    0.023515
 -0.00000000D+00 -0.00000000D+00  0.00000000D+00  0.00000000D+00 -0.00000000D+00
 -0.00000000D+00 -0.00000000D+00  0.00000000D+00  0.00000000D+00 -0.00000000D+00
  0.00000000D+00  0.14094437D-04  0.48168414D-04 -0.00000000D+00 -0.13566051D-04
 -0.46362630D-04  0.00000000D+00  0.96729970D-04  0.33057932D-03 -0.00000000D+00
 -0.19747228D-03 -0.67487100D-03  0.00000000D+00 -0.00000000D+00 -0.00000000D+00
  0.63769975D-07  0.21793694D-06 -0.00000000D+00 -0.00000000D+00 -0.00000000D+00
 -0.00000000D+00 -0.66037158D-07 -0.22568515D-06  0.00000000D+00  0.00000000D+00
  0.00000000D+00 -0.00000000D+00 -0.00000000D+00  0.00000000D+00  0.00000000D+00
  0.00000000D+00 -0.00000000D+00 -0.00000000D+00  0.00000000D+00 -0.00000000D+00
 -0.14094437D-04 -0.48168414D-04 -0.00000000D+00  0.13566051D-04  0.46362630D-04
  0.00000000D+00 -0.96729970D-04 -0.33057932D-03 -0.00000000D+00  0.19747228D-03
  0.67487100D-03  0.00000000D+00  0.00000000D+00  0.00000000D+00  0.63769975D-07
  0.21793694D-06  0.00000000D+00  0.00000000D+00  0.00000000D+00  0.00000000D+00
 -0.66037158D-07 -0.22568515D-06 -0.00000000D+00
MO   16     MO 0.0        OCC NO =    0.0000000  ORB. ENERGY =    0.023515
  0.00000000D+00  0.00000000D+00  0.00000000D+00 -0.00000000D+00  0.00000000D+00
  0.00000000D+00  0.00000000D+00 -0.00000000D+00 -0.00000000D+00 -0.00000000D+00
 -0.00000000D+00 -0.48168414D-04  0.14094437D-04  0.00000000D+00  0.46362630D-04
 -0.13566051D-04 -0.00000000D+00 -0.33057932D-03  0.96729970D-04  0.00000000D+00
  0.67487100D-03 -0.19747228D-03 -0.00000000D+00  0.00000000D+00  0.00000000D+00
 -0.21793694D-06  0.63769975D-07  0.00000000D+00  0.00000000D+00  0.00000000D+00
  0.00000000D+00  0.22568515D-06 -0.66037158D-07 -0.00000000D+00  0.00000000D+00
 -0.00000000D+00  0.00000000D+00  0.00000000D+00 -0.00000000D+00  0.00000000D+00
 -0.00000000D+00  0.00000000D+00  0.00000000D+00  0.00000000D+00  0.00000000D+00
  0.48168414D-04 -0.14094437D-04  0.00000000D+00 -0.46362630D-04  0.13566051D-04
 -0.00000000D+00  0.33057932D-03 -0.96729970D-04  0.00000000D+00 -0.67487100D-03
  0.19747228D-03 -0.00000000D+00 -0.00000000D+00 -0.00000000D+00 -0.21793694D-06
  0.63769975D-07 -0.00000000D+00 -0.00000000D+00 -0.00000000D+00 -0.00000000D+00
  0.22568515D-06 -0.66037158D-07  0.00000000D+00
MO   17     MO 0.0        OCC NO =    0.0000000  ORB. ENERGY =    0.029493
  0.59282606D-03 -0.15150037D-02  0.60011043D-02 -0.10885685D-01  0.89993014D-02
  0.12177339D-02  0.34237520D-02 -0.55241642D-02 -0.60370020D-03 -0.68016985D-04
 -0.33819309D-04 -0.00000000D+00 -0.00000000D+00  0.37124051D-04  0.00000000D+00
  0.00000000D+00 -0.23725169D-03 -0.00000000D+00 -0.00000000D+00  0.57632553D-03
 -0.00000000D+00  0.00000000D+00 -0.15681791D-06  0.66690931D-08  0.66690931D-08
 -0.00000000D+00 -0.00000000D+00 -0.00000000D+00  0.48685238D-06  0.24801519D-06
  0.24801519D-06  0.00000000D+00  0.00000000D+00  0.00000000D+00  0.59282606D-03
 -0.15150037D-02  0.60011043D-02 -0.10885685D-01  0.89993014D-02  0.12177339D-02
  0.34237520D-02 -0.55241642D-02 -0.60370020D-03 -0.68016985D-04  0.33819309D-04
  0.00000000D+00  0.00000000D+00 -0.37124051D-04 -0.00000000D+00 -0.00000000D+00
  0.23725169D-03  0.00000000D+00  0.00000000D+00 -0.57632553D-03  0.00000000D+00
 -0.00000000D+00 -0.15681791D-06  0.66690931D-08  0.66690931D-08 -0.00000000D+00
 -0.00000000D+00  0.00000000D+00  0.48685238D-06  0.24801519D-06  0.24801519D-06
  0.00000000D+00  0.00000000D+00 -0.00000000D+00
MO   18     MO 0.0        OCC NO =    0.0000000  ORB. ENERGY =    0.030782
  0.39521806D-02  0.39811489D-02 -0.17697007D-01  0.17695927D-01 -0.99702111D-02
 -0.37544278D-02 -0.29164987D-02  0.61259634D-02  0.12918812D-02 -0.12400102D-03
 -0.53572332D-04  0.00000000D+00 -0.00000000D+00  0.95871413D-04 -0.00000000D+00
  0.00000000D+00 -0.13026348D-03  0.00000000D+00  0.00000000D+00  0.33965161D-03
 -0.00000000D+00 -0.00000000D+00 -0.35612341D-06 -0.92342748D-07 -0.92342748D-07
  0.00000000D+00 -0.00000000D+00  0.00000000D+00 -0.93132933D-06 -0.19303432D-05
 -0.19303432D-05 -0.00000000D+00 -0.00000000D+00 -0.00000000D+00  0.39521806D-02
  0.39811489D-02 -0.17697007D-01  0.17695927D-01 -0.99702111D-02 -0.37544278D-02
 -0.29164987D-02  0.61259634D-02  0.12918812D-02 -0.12400102D-03  0.53572332D-04
 -0.00000000D+00  0.00000000D+00 -0.95871412D-04  0.00000000D+00  0.00000000D+00
  0.13026348D-03 -0.00000000D+00 -0.00000000D+00 -0.33965161D-03  0.00000000D+00
  0.00000000D+00 -0.35612341D-06 -0.92342748D-07 -0.92342748D-07  0.00000000D+00
 -0.00000000D+00  0.00000000D+00 -0.93132935D-06 -0.19303432D-05 -0.19303432D-05
 -0.00000000D+00 -0.00000000D+00 -0.00000000D+00
MO   19     MO 0.0        OCC NO =    0.0000000  ORB. ENERGY =    0.030820
  0.23522704D-03 -0.37228908D-01 -0.44077315D-03  0.62460235D-02 -0.59152925D-02
 -0.51358941D-04 -0.22995506D-02  0.33036515D-02  0.18318727D-03  0.98134901D-04
 -0.34377917D-05  0.00000000D+00  0.00000000D+00 -0.62898237D-03 -0.00000000D+00
 -0.00000000D+00  0.49696002D-03  0.00000000D+00 -0.00000000D+00 -0.59112510D-03
  0.00000000D+00  0.00000000D+00 -0.43143996D-07 -0.34719684D-07 -0.34719684D-07
  0.00000000D+00  0.00000000D+00 -0.00000000D+00 -0.36907202D-05 -0.73465479D-06
 -0.73465479D-06 -0.00000000D+00 -0.00000000D+00  0.00000000D+00 -0.23522704D-03
  0.37228908D-01  0.44077315D-03 -0.62460235D-02  0.59152925D-02  0.51358941D-04
  0.22995506D-02 -0.33036515D-02 -0.18318727D-03 -0.98134901D-04 -0.34377917D-05
 -0.00000000D+00 -0.00000000D+00 -0.62898237D-03  0.00000000D+00  0.00000000D+00
  0.49696002D-03 -0.00000000D+00 -0.00000000D+00 -0.59112510D-03  0.00000000D+00
 -0.00000000D+00  0.43143996D-07  0.34719684D-07  0.34719684D-07  0.00000000D+00
  0.00000000D+00 -0.00000000D+00  0.36907202D-05  0.73465479D-06  0.73465479D-06
 -0.00000000D+00 -0.00000000D+00 -0.00000000D+00
MO   20     MO 0.0        OCC NO =    0.0000000  ORB. ENERGY =    0.039231
 -0.48607616D-03 -0.29015018D-01  0.17099394D-01 -0.11825041D-01  0.26575178D-02
  0.80172725D-02 -0.22517605D-03 -0.35634273D-02 -0.20192580D-02  0.47303960D-03
  0.44821865D-04  0.00000000D+00  0.00000000D+00 -0.44228441D-03  0.00000000D+00
 -0.00000000D+00 -0.10547504D-03 -0.00000000D+00  0.00000000D+00  0.12649311D-03
  0.00000000D+00  0.00000000D+00  0.61749972D-06  0.54660564D-06  0.54660564D-06
  0.00000000D+00  0.00000000D+00  0.00000000D+00  0.18000798D-05  0.39394569D-05
  0.39394569D-05  0.00000000D+00 -0.00000000D+00 -0.00000000D+00  0.48607616D-03
  0.29015018D-01 -0.17099394D-01  0.11825041D-01 -0.26575178D-02 -0.80172725D-02
  0.22517605D-03  0.35634273D-02  0.20192580D-02 -0.47303960D-03  0.44821865D-04
 -0.00000000D+00 -0.00000000D+00 -0.44228441D-03 -0.00000000D+00  0.00000000D+00
 -0.10547504D-03  0.00000000D+00 -0.00000000D+00  0.12649311D-03 -0.00000000D+00
  0.00000000D+00 -0.61749972D-06 -0.54660564D-06 -0.54660564D-06 -0.00000000D+00
  0.00000000D+00 -0.00000000D+00 -0.18000798D-05 -0.39394569D-05 -0.39394569D-05
  0.00000000D+00 -0.00000000D+00  0.00000000D+00
MO   21     MO 0.0        OCC NO =    0.0000000  ORB. ENERGY =    0.041468
  0.00000000D+00 -0.00000000D+00  0.00000000D+00 -0.00000000D+00 -0.00000000D+00
  0.00000000D+00 -0.00000000D+00 -0.00000000D+00 -0.00000000D+00  0.00000000D+00
 -0.00000000D+00  0.00000000D+00  0.00000000D+00 -0.00000000D+00 -0.00000000D+00
 -0.00000000D+00  0.00000000D+00  0.00000000D+00  0.00000000D+00 -0.00000000D+00
 -0.00000000D+00 -0.00000000D+00 -0.00000000D+00 -0.34991760D-07  0.34991760D-07
  0.00000000D+00  0.00000000D+00 -0.73997287D-07 -0.00000000D+00  0.45815616D-06
 -0.45815616D-06 -0.00000000D+00 -0.00000000D+00  0.96886560D-06  0.00000000D+00
  0.00000000D+00 -0.00000000D+00  0.00000000D+00 -0.00000000D+00 -0.00000000D+00
 -0.00000000D+00  0.00000000D+00  0.00000000D+00 -0.00000000D+00 -0.00000000D+00
 -0.00000000D+00 -0.00000000D+00 -0.00000000D+00  0.00000000D+00 -0.00000000D+00
  0.00000000D+00  0.00000000D+00  0.00000000D+00 -0.00000000D+00 -0.00000000D+00
 -0.00000000D+00  0.00000000D+00 -0.34991760D-07  0.34991760D-07  0.00000000D+00
  0.00000000D+00 -0.73997287D-07  0.00000000D+00  0.45815616D-06 -0.45815616D-06
  0.00000000D+00  0.00000000D+00  0.96886560D-06
MO   22     MO 0.0        OCC NO =    0.0000000  ORB. ENERGY =    0.041468
  0.00000000D+00  0.00000000D+00 -0.00000000D+00  0.00000000D+00 -0.00000000D+00
 -0.00000000D+00  0.00000000D+00  0.00000000D+00  0.00000000D+00 -0.00000000D+00
 -0.00000000D+00 -0.00000000D+00 -0.00000000D+00  0.00000000D+00 -0.00000000D+00
  0.00000000D+00 -0.00000000D+00 -0.00000000D+00 -0.00000000D+00  0.00000000D+00
  0.00000000D+00  0.00000000D+00  0.00000000D+00 -0.36998644D-07  0.36998644D-07
 -0.00000000D+00 -0.00000000D+00  0.69983521D-07  0.00000000D+00  0.48443280D-06
 -0.48443280D-06  0.00000000D+00  0.00000000D+00 -0.91631232D-06  0.00000000D+00
 -0.00000000D+00  0.00000000D+00 -0.00000000D+00 -0.00000000D+00  0.00000000D+00
 -0.00000000D+00 -0.00000000D+00 -0.00000000D+00  0.00000000D+00  0.00000000D+00
  0.00000000D+00  0.00000000D+00  0.00000000D+00  0.00000000D+00 -0.00000000D+00
 -0.00000000D+00 -0.00000000D+00 -0.00000000D+00 -0.00000000D+00  0.00000000D+00
  0.00000000D+00 -0.00000000D+00 -0.36998644D-07  0.36998644D-07  0.00000000D+00
 -0.00000000D+00  0.69983521D-07 -0.00000000D+00  0.48443280D-06 -0.48443280D-06
 -0.00000000D+00 -0.00000000D+00 -0.91631232D-06
MO   23     MO 0.0        OCC NO =    0.0000000  ORB. ENERGY =    0.042459
 -0.74037336D-03  0.10025024D+00 -0.95574125D-02  0.73217106D-02  0.13445647D-02
 -0.11312097D-01  0.17412885D-02  0.28951940D-02  0.26490922D-02 -0.70308694D-03
  0.16637270D-04 -0.00000000D+00 -0.00000000D+00  0.14447294D-02  0.00000000D+00
  0.00000000D+00  0.39582408D-04 -0.00000000D+00  0.00000000D+00 -0.97100634D-04
  0.00000000D+00 -0.00000000D+00  0.32451191D-06  0.37722305D-06  0.37722305D-06
 -0.00000000D+00 -0.00000000D+00 -0.00000000D+00  0.73933606D-05 -0.68720899D-07
 -0.68720899D-07  0.00000000D+00  0.00000000D+00  0.00000000D+00  0.74037336D-03
 -0.10025024D+00  0.95574125D-02 -0.73217106D-02 -0.13445647D-02  0.11312097D-01
 -0.17412885D-02 -0.28951940D-02 -0.26490922D-02  0.70308694D-03  0.16637270D-04
  0.00000000D+00  0.00000000D+00  0.14447294D-02 -0.00000000D+00 -0.00000000D+00
  0.39582408D-04  0.00000000D+00  0.00000000D+00 -0.97100634D-04 -0.00000000D+00
 -0.00000000D+00 -0.32451191D-06 -0.37722305D-06 -0.37722305D-06 -0.00000000D+00
 -0.00000000D+00  0.00000000D+00 -0.73933606D-05  0.68720899D-07  0.68720899D-07
  0.00000000D+00  0.00000000D+00  0.00000000D+00
MO   24     MO 0.0        OCC NO =    0.0000000  ORB. ENERGY =    0.042954
  0.81663104D-02 -0.33706449D-02 -0.17045765D-02 -0.15205996D-03 -0.69976804D-03
  0.21691256D-02 -0.44243091D-03 -0.40075576D-03 -0.49976177D-03  0.13957516D-03
 -0.16123145D-03 -0.00000000D+00 -0.00000000D+00  0.56474141D-04  0.00000000D+00
  0.00000000D+00 -0.50938995D-04  0.00000000D+00 -0.00000000D+00  0.47346394D-04
 -0.00000000D+00  0.00000000D+00 -0.10310823D-05 -0.18479819D-06 -0.18479819D-06
 -0.00000000D+00 -0.00000000D+00  0.00000000D+00 -0.69607456D-06 -0.13527604D-05
 -0.13527604D-05  0.00000000D+00  0.00000000D+00 -0.00000000D+00  0.81663104D-02
 -0.33706449D-02 -0.17045765D-02 -0.15205996D-03 -0.69976804D-03  0.21691256D-02
 -0.44243091D-03 -0.40075576D-03 -0.49976177D-03  0.13957516D-03  0.16123145D-03
  0.00000000D+00  0.00000000D+00 -0.56474141D-04 -0.00000000D+00 -0.00000000D+00