[Molden Format]
[Title]
 Molden2AIM, Version 3.1.0 (02/25/2015)           Time: Thu Oct 17 19:55:35 2024

[Atoms] AU
E+       1       4     0.00000000     0.00000000     0.00000000
E+       2       4    48.00000000     0.00000000     0.00000000
[GTO]
    1 0
 S   1 1.0
    0.1000000000D-03      0.1000000000D+01
 S   1 1.0
    0.3000000000D-03      0.1000000000D+01
 S   1 1.0
    0.9000000000D-03      0.1000000000D+01
 S   1 1.0
    0.2700000000D-02      0.1000000000D+01
 S   1 1.0
    0.8100000000D-02      0.1000000000D+01
 S   1 1.0
    0.2430000000D-01      0.1000000000D+01
 S   1 1.0
    0.7290000000D-01      0.1000000000D+01
 S   1 1.0
    0.2187000000D+00      0.1000000000D+01
 S   1 1.0
    0.6561000000D+00      0.1000000000D+01
 S   1 1.0
    0.1968300000D+01      0.1000000000D+01
 P   1 1.0
    0.1000000000D-03      0.1000000000D+01
 P   1 1.0
    0.3000000000D-03      0.1000000000D+01
 P   1 1.0
    0.9000000000D-03      0.1000000000D+01
 P   1 1.0
    0.2700000000D-02      0.1000000000D+01
 D   1 1.0
    0.1000000000D-03      0.1000000000D+01
 D   1 1.0
    0.3000000000D-03      0.1000000000D+01

    2 0
 S   1 1.0
    0.1000000000D-03      0.1000000000D+01
 S   1 1.0
    0.3000000000D-03      0.1000000000D+01
 S   1 1.0
    0.9000000000D-03      0.1000000000D+01
 S   1 1.0
    0.2700000000D-02      0.1000000000D+01
 S   1 1.0
    0.8100000000D-02      0.1000000000D+01
 S   1 1.0
    0.2430000000D-01      0.1000000000D+01
 S   1 1.0
    0.7290000000D-01      0.1000000000D+01
 S   1 1.0
    0.2187000000D+00      0.1000000000D+01
 S   1 1.0
    0.6561000000D+00      0.1000000000D+01
 S   1 1.0
    0.1968300000D+01      0.1000000000D+01
 P   1 1.0
    0.1000000000D-03      0.1000000000D+01
 P   1 1.0
    0.3000000000D-03      0.1000000000D+01
 P   1 1.0
    0.9000000000D-03      0.1000000000D+01
 P   1 1.0
    0.2700000000D-02      0.1000000000D+01
 D   1 1.0
    0.1000000000D-03      0.1000000000D+01
 D   1 1.0
    0.3000000000D-03      0.1000000000D+01


[MO]
 Ene=         -0.00075164
 Spin= Alpha
 Occup=        1.00000000
    1       -0.0274397400
    2       -0.0625474800
    3        0.1064539900
    4        0.2276844800
    5        0.2387812000
    6        0.1837035800
    7        0.1100232600
    8       -0.0896229400
    9       -0.0062473500
   10        0.0001035400
   11       -0.0046585800
   12        0.0000000000
   13       -0.0000000000
   14        0.0134110700
   15       -0.0000000000
   16       -0.0000000000
   17        0.0010585900
   18       -0.0000000000
   19        0.0000000000
   20        0.1648915800
   21        0.0000000000
   22       -0.0000000000
   23        0.0006978500
   24        0.0044918200
   25        0.0044918200
   26        0.0000000000
   27       -0.0000000000
   28        0.0000000000
   29        0.0312255600
   30        0.0172486100
   31        0.0172486100
   32       -0.0000000000
   33       -0.0000000000
   34       -0.0000000000
   35       -0.0274397400
   36       -0.0625474800
   37        0.1064539900
   38        0.2276844800
   39        0.2387812000
   40        0.1837035800
   41        0.1100232600
   42       -0.0896229400
   43       -0.0062473500
   44        0.0001035400
   45        0.0046585800
   46       -0.0000000000
   47        0.0000000000
   48       -0.0134110700
   49        0.0000000000
   50        0.0000000000
   51       -0.0010585900
   52        0.0000000000
   53       -0.0000000000
   54       -0.1648915800
   55       -0.0000000000
   56        0.0000000000
   57        0.0006978500
   58        0.0044918200
   59        0.0044918200
   60        0.0000000000
   61        0.0000000000
   62       -0.0000000000
   63        0.0312255600
   64        0.0172486100
   65        0.0172486100
   66       -0.0000000000
   67       -0.0000000000
   68        0.0000000000
 Ene=         -0.00040403
 Spin= Alpha
 Occup=        0.00000000
    1        0.0206169800
    2       -1.3861255000
    3        0.0078621600
    4       -0.3026672800
    5       -0.2399112400
    6       -0.2074904400
    7       -0.1157580100
    8        0.0958223700
    9        0.0069615100
   10       -0.0001508000
   11       -0.0178868400
   12       -0.0000000000
   13       -0.0000000000
   14       -0.6857763300
   15       -0.0000000000
   16        0.0000000000
   17        0.0882236100
   18        0.0000000000
   19       -0.0000000000
   20       -0.1863897400
   21       -0.0000000000
   22        0.0000000000
   23       -0.0168929800
   24       -0.0153222700
   25       -0.0153222700
   26       -0.0000000000
   27       -0.0000000000
   28       -0.0000000000
   29       -0.2075827600
   30       -0.0396923900
   31       -0.0396923900
   32       -0.0000000000
   33        0.0000000000
   34        0.0000000000
   35       -0.0206169800
   36        1.3861255000
   37       -0.0078621600
   38        0.3026672800
   39        0.2399112400
   40        0.2074904400
   41        0.1157580100
   42       -0.0958223700
   43       -0.0069615100
   44        0.0001508000
   45       -0.0178868400
   46        0.0000000000
   47        0.0000000000
   48       -0.6857763300
   49        0.0000000000
   50       -0.0000000000
   51        0.0882236100
   52        0.0000000000
   53       -0.0000000000
   54       -0.1863897400
   55       -0.0000000000
   56        0.0000000000
   57        0.0168929800
   58        0.0153222700
   59        0.0153222700
   60        0.0000000000
   61       -0.0000000000
   62        0.0000000000
   63        0.2075827600
   64        0.0396923900
   65        0.0396923900
   66       -0.0000000000
   67       -0.0000000000
   68       -0.0000000000
 Ene=          0.00502140
 Spin= Alpha
 Occup=        0.00000000
    1        0.6114281400
    2        0.1580133200
    3       -0.9326631500
    4        0.5421038500
    5        0.1064245400
    6        0.1410335600
    7        0.0543131100
    8       -0.0493546200
    9       -0.0043828100
   10        0.0001878600
   11       -0.8558180000
   12        0.0000000000
   13        0.0000000000
   14        0.2876426300
   15        0.0000000000
   16       -0.0000000000
   17       -0.4678626500
   18       -0.0000000000
   19        0.0000000000
   20        0.0569888000
   21        0.0000000000
   22       -0.0000000000
   23       -0.3871389800
   24       -0.0295633800
   25       -0.0295633800
   26        0.0000000000
   27        0.0000000000
   28        0.0000000000
   29       -0.0137930600
   30       -0.0969439600
   31       -0.0969439600
   32        0.0000000000
   33       -0.0000000000
   34       -0.0000000000
   35        0.6114281400
   36        0.1580133200
   37       -0.9326631500
   38        0.5421038500
   39        0.1064245400
   40        0.1410335600
   41        0.0543131100
   42       -0.0493546200
   43       -0.0043828100
   44        0.0001878600
   45        0.8558180000
   46       -0.0000000000
   47       -0.0000000000
   48       -0.2876426300
   49       -0.0000000000
   50        0.0000000000
   51        0.4678626500
   52        0.0000000000
   53       -0.0000000000
   54       -0.0569888000
   55       -0.0000000000
   56        0.0000000000
   57       -0.3871389800
   58       -0.0295633800
   59       -0.0295633800
   60        0.0000000000
   61        0.0000000000
   62       -0.0000000000
   63       -0.0137930600
   64       -0.0969439600
   65       -0.0969439600
   66        0.0000000000
   67       -0.0000000000
   68        0.0000000000
 Ene=          0.01087840
 Spin= Alpha
 Occup=        0.00000000
    1       -0.0000000000
    2        0.0000000000
    3       -0.0000000000
    4        0.0000000000
    5        0.0000000000
    6        0.0000000000
    7        0.0000000000
    8       -0.0000000000
    9       -0.0000000000
   10        0.0000000000
   11       -0.0000000000
   12        0.0142274900
   13        0.0405220000
   14        0.0000000000
   15       -0.0386366600
   16       -0.1100429500
   17       -0.0000000000
   18        0.1291598000
   19        0.3678663600
   20       -0.0000000000
   21        0.1174265500
   22        0.3344483100
   23       -0.0000000000
   24        0.0000000000
   25        0.0000000000
   26       -0.0131796500
   27       -0.0375376000
   28       -0.0000000000
   29        0.0000000000
   30        0.0000000000
   31        0.0000000000
   32        0.0243107300
   33        0.0692405700
   34        0.0000000000
   35        0.0000000000
   36       -0.0000000000
   37        0.0000000000
   38        0.0000000000
   39       -0.0000000000
   40       -0.0000000000
   41       -0.0000000000
   42        0.0000000000
   43       -0.0000000000
   44        0.0000000000
   45        0.0000000000
   46        0.0142274900
   47        0.0405220000
   48        0.0000000000
   49       -0.0386366600
   50       -0.1100429500
   51       -0.0000000000
   52        0.1291598000
   53        0.3678663600
   54       -0.0000000000
   55        0.1174265500
   56        0.3344483100
   57       -0.0000000000
   58       -0.0000000000
   59        0.0000000000
   60        0.0131796500
   61        0.0375376000
   62        0.0000000000
   63       -0.0000000000
   64        0.0000000000
   65        0.0000000000
   66       -0.0243107300
   67       -0.0692405700
   68       -0.0000000000
 Ene=          0.01087840
 Spin= Alpha
 Occup=        0.00000000
    1       -0.0000000000
    2       -0.0000000000
    3        0.0000000000
    4       -0.0000000000
    5       -0.0000000000
    6       -0.0000000000
    7       -0.0000000000
    8        0.0000000000
    9        0.0000000000
   10        0.0000000000
   11        0.0000000000
   12        0.0405220000
   13       -0.0142274900
   14       -0.0000000000
   15       -0.1100429500
   16        0.0386366600
   17        0.0000000000
   18        0.3678663600
   19       -0.1291598000
   20        0.0000000000
   21        0.3344483100
   22       -0.1174265500
   23        0.0000000000
   24       -0.0000000000
   25       -0.0000000000
   26       -0.0375376000
   27        0.0131796500
   28       -0.0000000000
   29       -0.0000000000
   30       -0.0000000000
   31       -0.0000000000
   32        0.0692405700
   33       -0.0243107300
   34       -0.0000000000
   35       -0.0000000000
   36        0.0000000000
   37       -0.0000000000
   38        0.0000000000
   39        0.0000000000
   40        0.0000000000
   41        0.0000000000
   42       -0.0000000000
   43       -0.0000000000
   44        0.0000000000
   45       -0.0000000000
   46        0.0405220000
   47       -0.0142274900
   48       -0.0000000000
   49       -0.1100429500
   50        0.0386366600
   51        0.0000000000
   52        0.3678663600
   53       -0.1291598000
   54        0.0000000000
   55        0.3344483100
   56       -0.1174265500
   57        0.0000000000
   58        0.0000000000
   59        0.0000000000
   60        0.0375376000
   61       -0.0131796500
   62        0.0000000000
   63        0.0000000000
   64        0.0000000000
   65        0.0000000000
   66       -0.0692405700
   67        0.0243107300
   68        0.0000000000
 Ene=          0.01106020
 Spin= Alpha
 Occup=        0.00000000
    1        0.0415003500
    2       -6.1203853200
    3        1.1190408900
    4        0.3138221400
    5       -0.5900267100
    6       -0.0652561800
    7       -0.0932152200
    8        0.0658611300
    9        0.0029710900
   10        0.0001662500
   11        0.0961811300
   12        0.0000000000
   13        0.0000000000
   14       -2.8062149200
   15       -0.0000000000
   16       -0.0000000000
   17        0.3702069400
   18       -0.0000000000
   19        0.0000000000
   20        0.4581331500
   21        0.0000000000
   22        0.0000000000
   23        0.0849944500
   24        0.0652588300
   25        0.0652588300
   26        0.0000000000
   27        0.0000000000
   28       -0.0000000000
   29       -0.5689737400
   30        0.1204780100
   31        0.1204780100
   32       -0.0000000000
   33       -0.0000000000
   34        0.0000000000
   35       -0.0415003500
   36        6.1203853200
   37       -1.1190408900
   38       -0.3138221400
   39        0.5900267100
   40        0.0652561800
   41        0.0932152200
   42       -0.0658611300
   43       -0.0029710900
   44       -0.0001662500
   45        0.0961811300
   46       -0.0000000000
   47       -0.0000000000
   48       -2.8062149200
   49        0.0000000000
   50        0.0000000000
   51        0.3702069400
   52       -0.0000000000
   53       -0.0000000000
   54        0.4581331500
   55       -0.0000000000
   56        0.0000000000
   57       -0.0849944500
   58       -0.0652588300
   59       -0.0652588300
   60        0.0000000000
   61        0.0000000000
   62        0.0000000000
   63        0.5689737400
   64       -0.1204780100
   65       -0.1204780100
   66       -0.0000000000
   67       -0.0000000000
   68       -0.0000000000
 Ene=          0.01202900
 Spin= Alpha
 Occup=        0.00000000
    1        0.0917210200
    2       -0.2937682400
    3       -0.4620335200
    4        1.4085854300
    5       -0.8139669100
    6        0.0447046800
    7       -0.0976799900
    8        0.0574012900
    9        0.0003098500
   10        0.0004703700
   11       -0.9275802000
   12       -0.0000000000
   13        0.0000000000
   14        0.2424576200
   15        0.0000000000
   16       -0.0000000000
   17       -0.6609070500
   18       -0.0000000000
   19        0.0000000000
   20        0.8189162000
   21        0.0000000000
   22        0.0000000000
   23       -0.3370055900
   24        0.0510606400
   25        0.0510606400
   26       -0.0000000000
   27        0.0000000000
   28        0.0000000000
   29        0.2030786300
   30        0.1677422800
   31        0.1677422800
   32        0.0000000000
   33       -0.0000000000
   34       -0.0000000000
   35        0.0917210200
   36       -0.2937682400
   37       -0.4620335200
   38        1.4085854300
   39       -0.8139669100
   40        0.0447046800
   41       -0.0976799900
   42        0.0574012900
   43        0.0003098500
   44        0.0004703700
   45        0.9275802000
   46        0.0000000000
   47       -0.0000000000
   48       -0.2424576200
   49       -0.0000000000
   50        0.0000000000
   51        0.6609070500
   52        0.0000000000
   53       -0.0000000000
   54       -0.8189162000
   55       -0.0000000000
   56       -0.0000000000
   57       -0.3370055900
   58        0.0510606400
   59        0.0510606400
   60       -0.0000000000
   61        0.0000000000
   62       -0.0000000000
   63        0.2030786300
   64        0.1677422800
   65        0.1677422800
   66        0.0000000000
   67       -0.0000000000
   68        0.0000000000
 Ene=          0.01307640
 Spin= Alpha
 Occup=        0.00000000
    1       -0.0000000000
    2        0.0000000000
    3       -0.0000000000
    4        0.0000000000
    5       -0.0000000000
    6        0.0000000000
    7       -0.0000000000
    8        0.0000000000
    9        0.0000000000
   10       -0.0000000000
   11        0.0000000000
   12        0.1045241300
   13        0.0390204500
   14        0.0000000000
   15       -0.0882495600
   16       -0.0329449000
   17       -0.0000000000
   18        0.0109615100
   19        0.0040921000
   20        0.0000000000
   21       -0.6821941600
   22       -0.2546734600
   23        0.0000000000
   24        0.0000000000
   25        0.0000000000
   26        0.0292952900
   27        0.0109363800
   28       -0.0000000000
   29        0.0000000000
   30        0.0000000000
   31        0.0000000000
   32       -0.0434842300
   33       -0.0162333200
   34        0.0000000000
   35        0.0000000000
   36       -0.0000000000
   37        0.0000000000
   38       -0.0000000000
   39        0.0000000000
   40        0.0000000000
   41        0.0000000000
   42        0.0000000000
   43       -0.0000000000
   44        0.0000000000
   45        0.0000000000
   46       -0.1045241300
   47       -0.0390204500
   48        0.0000000000
   49        0.0882495600
   50        0.0329449000
   51       -0.0000000000
   52       -0.0109615100
   53       -0.0040921000
   54        0.0000000000
   55        0.6821941600
   56        0.2546734600
   57       -0.0000000000
   58       -0.0000000000
   59       -0.0000000000
   60        0.0292952900
   61        0.0109363800
   62        0.0000000000
   63       -0.0000000000
   64       -0.0000000000
   65       -0.0000000000
   66       -0.0434842300
   67       -0.0162333200
   68       -0.0000000000
 Ene=          0.01307640
 Spin= Alpha
 Occup=        0.00000000
    1        0.0000000000
    2       -0.0000000000
    3        0.0000000000
    4       -0.0000000000
    5       -0.0000000000
    6       -0.0000000000
    7       -0.0000000000
    8        0.0000000000
    9       -0.0000000000
   10       -0.0000000000
   11       -0.0000000000
   12       -0.0390204500
   13        0.1045241300
   14       -0.0000000000
   15        0.0329449000
   16       -0.0882495600
   17        0.0000000000
   18       -0.0040921000
   19        0.0109615100
   20        0.0000000000
   21        0.2546734600
   22       -0.6821941600
   23       -0.0000000000
   24       -0.0000000000
   25       -0.0000000000
   26       -0.0109363800
   27        0.0292952900
   28       -0.0000000000
   29       -0.0000000000
   30       -0.0000000000
   31       -0.0000000000
   32        0.0162333200
   33       -0.0434842300
   34       -0.0000000000
   35       -0.0000000000
   36        0.0000000000
   37       -0.0000000000
   38        0.0000000000
   39       -0.0000000000
   40        0.0000000000
   41       -0.0000000000
   42        0.0000000000
   43        0.0000000000
   44       -0.0000000000
   45        0.0000000000
   46        0.0390204500
   47       -0.1045241300
   48       -0.0000000000
   49       -0.0329449000
   50        0.0882495600
   51        0.0000000000
   52        0.0040921000
   53       -0.0109615100
   54       -0.0000000000
   55       -0.2546734600
   56        0.6821941600
   57       -0.0000000000
   58        0.0000000000
   59        0.0000000000
   60       -0.0109363800
   61        0.0292952900
   62        0.0000000000
   63        0.0000000000
   64        0.0000000000
   65        0.0000000000
   66        0.0162333200
   67       -0.0434842300
   68       -0.0000000000
 Ene=          0.01749760
 Spin= Alpha
 Occup=        0.00000000
    1        0.2155195200
    2      -19.5946878900
    3        2.7402286100
    4       -1.5569467200
    5        0.5244729500
    6       -0.0494546000
    7        0.0459678700
    8       -0.0242621700
    9        0.0004648300
   10       -0.0002844200
   11        0.0189259200
   12        0.0000000000
   13        0.0000000000
   14       -9.3570886900
   15       -0.0000000000
   16       -0.0000000000
   17        1.6379535400
   18        0.0000000000
   19       -0.0000000000
   20       -0.7268005800
   21       -0.0000000000
   22        0.0000000000
   23       -0.0045194000
   24       -0.0054042500
   25       -0.0054042500
   26        0.0000000000
   27        0.0000000000
   28        0.0000000000
   29       -2.3795769700
   30       -0.1191320600
   31       -0.1191320600
   32        0.0000000000
   33       -0.0000000000
   34       -0.0000000000
   35       -0.2155195200
   36       19.5946878900
   37       -2.7402286100
   38        1.5569467200
   39       -0.5244729500
   40        0.0494546000
   41       -0.0459678700
   42        0.0242621700
   43       -0.0004648300
   44        0.0002844200
   45        0.0189259200
   46       -0.0000000000
   47       -0.0000000000
   48       -9.3570886900
   49       -0.0000000000
   50        0.0000000000
   51        1.6379535400
   52        0.0000000000
   53       -0.0000000000
   54       -0.7268005800
   55       -0.0000000000
   56        0.0000000000
   57        0.0045194000
   58        0.0054042500
   59        0.0054042500
   60        0.0000000000
   61        0.0000000000
   62       -0.0000000000
   63        2.3795769700
   64        0.1191320600
   65        0.1191320600
   66       -0.0000000000
   67       -0.0000000000
   68        0.0000000000
 Ene=          0.01751270
 Spin= Alpha
 Occup=        0.00000000
    1        0.0000000000
    2       -0.0000000000
    3        0.0000000000
    4       -0.0000000000
    5        0.0000000000
    6       -0.0000000000
    7        0.0000000000
    8       -0.0000000000
    9        0.0000000000
   10       -0.0000000000
   11       -0.0000000000
   12        0.0150778500
   13        0.0759743000
   14       -0.0000000000
   15       -0.0442129700
   16       -0.2227803400
   17        0.0000000000
   18        0.1853353100
   19        0.9338676800
   20       -0.0000000000
   21       -0.1884330500
   22       -0.9494766000
   23       -0.0000000000
   24       -0.0000000000
   25       -0.0000000000
   26       -0.0114145800
   27       -0.0575158100
   28        0.0000000000
   29       -0.0000000000
   30       -0.0000000000
   31       -0.0000000000
   32        0.0227723800
   33        0.1147454600
   34       -0.0000000000
   35       -0.0000000000
   36        0.0000000000
   37       -0.0000000000
   38        0.0000000000
   39       -0.0000000000
   40        0.0000000000
   41       -0.0000000000
   42        0.0000000000
   43       -0.0000000000
   44       -0.0000000000
   45        0.0000000000
   46        0.0150778500
   47        0.0759743000
   48       -0.0000000000
   49       -0.0442129700
   50       -0.2227803400
   51        0.0000000000
   52        0.1853353100
   53        0.9338676800
   54       -0.0000000000
   55       -0.1884330500
   56       -0.9494766000
   57       -0.0000000000
   58        0.0000000000
   59        0.0000000000
   60        0.0114145800
   61        0.0575158100
   62       -0.0000000000
   63        0.0000000000
   64        0.0000000000
   65        0.0000000000
   66       -0.0227723800
   67       -0.1147454600
   68        0.0000000000
 Ene=          0.01751270
 Spin= Alpha
 Occup=        0.00000000
    1       -0.0000000000
    2        0.0000000000
    3       -0.0000000000
    4        0.0000000000
    5       -0.0000000000
    6        0.0000000000
    7       -0.0000000000
    8        0.0000000000
    9       -0.0000000000
   10        0.0000000000
   11        0.0000000000
   12        0.0759743000
   13       -0.0150778500
   14        0.0000000000
   15       -0.2227803400
   16        0.0442129700
   17       -0.0000000000
   18        0.9338676800
   19       -0.1853353100
   20        0.0000000000
   21       -0.9494766000
   22        0.1884330500
   23        0.0000000000
   24       -0.0000000000
   25       -0.0000000000
   26       -0.0575158100
   27        0.0114145800
   28        0.0000000000
   29        0.0000000000
   30        0.0000000000
   31        0.0000000000
   32        0.1147454600
   33       -0.0227723800
   34       -0.0000000000
   35        0.0000000000
   36       -0.0000000000
   37        0.0000000000
   38       -0.0000000000
   39        0.0000000000
   40       -0.0000000000
   41        0.0000000000
   42       -0.0000000000
   43        0.0000000000
   44       -0.0000000000
   45       -0.0000000000
   46        0.0759743000
   47       -0.0150778500
   48        0.0000000000
   49       -0.2227803400
   50        0.0442129700
   51       -0.0000000000
   52        0.9338676800
   53       -0.1853353100
   54        0.0000000000
   55       -0.9494766000
   56        0.1884330500
   57        0.0000000000
   58        0.0000000000
   59        0.0000000000
   60        0.0575158100
   61       -0.0114145800
   62       -0.0000000000
   63       -0.0000000000
   64       -0.0000000000
   65       -0.0000000000
   66       -0.1147454600
   67        0.0227723800
   68        0.0000000000
 Ene=          0.02065550
 Spin= Alpha
 Occup=        0.00000000
    1        0.2645053200
    2        0.0381645800
    3       -0.1740631600
    4        1.0784210000
    5       -0.6880665000
    6       -0.0230975700
    7       -0.0718958600
    8        0.0477922800
    9        0.0016592200
   10        0.0001966900
   11       -0.3881848700
   12       -0.0000000000
   13        0.0000000000
   14        0.0832912200
   15        0.0000000000
   16       -0.0000000000
   17       -0.1688990900
   18       -0.0000000000
   19        0.0000000000
   20       -0.3187755200
   21        0.0000000000
   22       -0.0000000000
   23       -0.1722882100
   24       -0.0128635000
   25       -0.0128635000
   26       -0.0000000000
   27        0.0000000000
   28       -0.0000000000
   29       -0.0269683600
   30       -0.0276070200
   31       -0.0276070200
   32        0.0000000000
   33       -0.0000000000
   34        0.0000000000
   35        0.2645053200
   36        0.0381645800
   37       -0.1740631600
   38        1.0784210000
   39       -0.6880665000
   40       -0.0230975700
   41       -0.0718958600
   42        0.0477922800
   43        0.0016592200
   44        0.0001966900
   45        0.3881848700
   46        0.0000000000
   47       -0.0000000000
   48       -0.0832912200
   49       -0.0000000000
   50        0.0000000000
   51        0.1688990900
   52        0.0000000000
   53       -0.0000000000
   54        0.3187755200
   55       -0.0000000000
   56        0.0000000000
   57       -0.1722882100
   58       -0.0128635000
   59       -0.0128635000
   60       -0.0000000000
   61        0.0000000000
   62        0.0000000000
   63       -0.0269683600
   64       -0.0276070200
   65       -0.0276070200
   66        0.0000000000
   67       -0.0000000000
   68       -0.0000000000
 Ene=          0.02270480
 Spin= Alpha
 Occup=        0.00000000
    1       -0.0696862600
    2        7.2829651400
    3       -1.9285947200
    4        1.8885590500
    5       -0.8690223800
    6       -0.0102709100
    7       -0.0804958800
    8        0.0519687800
    9        0.0015128300
   10        0.0002562900
   11       -0.0471197300
   12       -0.0000000000
   13       -0.0000000000
   14        3.4588748400
   15        0.0000000000
   16        0.0000000000
   17       -0.9488070300
   18       -0.0000000000
   19       -0.0000000000
   20       -0.3136696900
   21        0.0000000000
   22        0.0000000000
   23       -0.0251781700
   24       -0.0357933400
   25       -0.0357933400
   26       -0.0000000000
   27       -0.0000000000
   28       -0.0000000000
   29        0.8087878100
   30        0.0032647700
   31        0.0032647700
   32        0.0000000000
   33        0.0000000000
   34        0.0000000000
   35        0.0696862600
   36       -7.2829651400
   37        1.9285947200
   38       -1.8885590500
   39        0.8690223800
   40        0.0102709100
   41        0.0804958800
   42       -0.0519687800
   43       -0.0015128300
   44       -0.0002562900
   45       -0.0471197300
   46        0.0000000000
   47        0.0000000000
   48        3.4588748400
   49       -0.0000000000
   50       -0.0000000000
   51       -0.9488070300
   52        0.0000000000
   53        0.0000000000
   54       -0.3136696900
   55       -0.0000000000
   56       -0.0000000000
   57        0.0251781700
   58        0.0357933400
   59        0.0357933400
   60       -0.0000000000
   61       -0.0000000000
   62        0.0000000000
   63       -0.8087878100
   64       -0.0032647700
   65       -0.0032647700
   66        0.0000000000
   67        0.0000000000
   68       -0.0000000000
 Ene=          0.02391730
 Spin= Alpha
 Occup=        0.00000000
    1        0.0000000000
    2       -0.0000000000
    3        0.0000000000
    4        0.0000000000
    5       -0.0000000000
    6       -0.0000000000
    7       -0.0000000000
    8        0.0000000000
    9       -0.0000000000
   10        0.0000000000
   11       -0.0000000000
   12        3.0800055600
   13        1.1245992500
   14       -0.0000000000
   15       -0.7624791500
   16       -0.2784032200
   17        0.0000000000
   18        1.4418000500
   19        0.5264429600
   20       -0.0000000000
   21       -0.7555652900
   22       -0.2758787700
   23       -0.0000000000
   24       -0.0000000000
   25       -0.0000000000
   26        0.7089877600
   27        0.2588719700
   28       -0.0000000000
   29       -0.0000000000
   30       -0.0000000000
   31       -0.0000000000
   32       -0.0994224100
   33       -0.0363020000
   34        0.0000000000
   35       -0.0000000000
   36        0.0000000000
   37        0.0000000000
   38       -0.0000000000
   39        0.0000000000
   40       -0.0000000000
   41        0.0000000000
   42       -0.0000000000
   43       -0.0000000000
   44       -0.0000000000
   45       -0.0000000000
   46       -3.0800055600
   47       -1.1245992500
   48       -0.0000000000
   49        0.7624791500
   50        0.2784032200
   51        0.0000000000
   52       -1.4418000500
   53       -0.5264429600
   54       -0.0000000000
   55        0.7555652900
   56        0.2758787700
   57        0.0000000000
   58        0.0000000000
   59        0.0000000000
   60        0.7089877600
   61        0.2588719700
   62        0.0000000000
   63        0.0000000000
   64        0.0000000000
   65        0.0000000000
   66       -0.0994224100
   67       -0.0363020000
   68       -0.0000000000
 Ene=          0.02391730
 Spin= Alpha
 Occup=        0.00000000
    1        0.0000000000
    2       -0.0000000000
    3        0.0000000000
    4        0.0000000000
    5       -0.0000000000
    6       -0.0000000000
    7       -0.0000000000
    8        0.0000000000
    9        0.0000000000
   10       -0.0000000000
   11       -0.0000000000
   12       -1.1245992500
   13        3.0800055600
   14       -0.0000000000
   15        0.2784032200
   16       -0.7624791500