 Molden2AIM, Version 3.1.0 (02/25/2015)           Time: Thu Oct 17 19:55:55 2024
GAUSSIAN             68 MOL ORBITALS     68 PRIMITIVES        2 NUCLEI
  Be   1    (CENTRE  1)   0.00000000  0.00000000  0.00000000  CHARGE =  4.0
  Be   2    (CENTRE  2)  52.40000000  0.00000000  0.00000000  CHARGE =  4.0
CENTRE ASSIGNMENTS    1  1  1  1  1  1  1  1  1  1  1  1  1  1  1  1  1  1  1  1
CENTRE ASSIGNMENTS    1  1  1  1  1  1  1  1  1  1  1  1  1  1  2  2  2  2  2  2
CENTRE ASSIGNMENTS    2  2  2  2  2  2  2  2  2  2  2  2  2  2  2  2  2  2  2  2
CENTRE ASSIGNMENTS    2  2  2  2  2  2  2  2
TYPE ASSIGNMENTS      1  1  1  1  1  1  1  1  1  1  2  3  4  2  3  4  2  3  4  2
TYPE ASSIGNMENTS      3  4  5  6  7  8  9 10  5  6  7  8  9 10  1  1  1  1  1  1
TYPE ASSIGNMENTS      1  1  1  1  2  3  4  2  3  4  2  3  4  2  3  4  5  6  7  8
TYPE ASSIGNMENTS      9 10  5  6  7  8  9 10
EXPONENTS  0.1000000D-03 0.3000000D-03 0.9000000D-03 0.2700000D-02 0.8100000D-02
EXPONENTS  0.2430000D-01 0.7290000D-01 0.2187000D+00 0.6561000D+00 0.1968300D+01
EXPONENTS  0.1000000D-03 0.1000000D-03 0.1000000D-03 0.3000000D-03 0.3000000D-03
EXPONENTS  0.3000000D-03 0.9000000D-03 0.9000000D-03 0.9000000D-03 0.2700000D-02
EXPONENTS  0.2700000D-02 0.2700000D-02 0.1000000D-03 0.1000000D-03 0.1000000D-03
EXPONENTS  0.1000000D-03 0.1000000D-03 0.1000000D-03 0.3000000D-03 0.3000000D-03
EXPONENTS  0.3000000D-03 0.3000000D-03 0.3000000D-03 0.3000000D-03 0.1000000D-03
EXPONENTS  0.3000000D-03 0.9000000D-03 0.2700000D-02 0.8100000D-02 0.2430000D-01
EXPONENTS  0.7290000D-01 0.2187000D+00 0.6561000D+00 0.1968300D+01 0.1000000D-03
EXPONENTS  0.1000000D-03 0.1000000D-03 0.3000000D-03 0.3000000D-03 0.3000000D-03
EXPONENTS  0.9000000D-03 0.9000000D-03 0.9000000D-03 0.2700000D-02 0.2700000D-02
EXPONENTS  0.2700000D-02 0.1000000D-03 0.1000000D-03 0.1000000D-03 0.1000000D-03
EXPONENTS  0.1000000D-03 0.1000000D-03 0.3000000D-03 0.3000000D-03 0.3000000D-03
EXPONENTS  0.3000000D-03 0.3000000D-03 0.3000000D-03
MO    1     MO 0.0        OCC NO =    1.0000000  ORB. ENERGY =    0.001653
 -0.12234274D-03 -0.20170473D-03  0.11162219D-02  0.14138889D-02  0.33871511D-02
  0.66955592D-02  0.91417293D-02 -0.16992032D-01 -0.26975258D-02  0.10258804D-03
  0.19925262D-05 -0.00000000D+00  0.00000000D+00 -0.22846122D-05  0.00000000D+00
 -0.00000000D+00  0.17106552D-04 -0.00000000D+00  0.00000000D+00  0.17613556D-03
  0.00000000D+00 -0.00000000D+00  0.12445872D-07  0.24120406D-08  0.24120406D-08
 -0.00000000D+00  0.00000000D+00 -0.00000000D+00  0.58296701D-07  0.56891913D-07
  0.56891913D-07  0.00000000D+00 -0.00000000D+00  0.00000000D+00 -0.12234274D-03
 -0.20170473D-03  0.11162219D-02  0.14138889D-02  0.33871511D-02  0.66955592D-02
  0.91417293D-02 -0.16992032D-01 -0.26975258D-02  0.10258804D-03 -0.19925262D-05
  0.00000000D+00 -0.00000000D+00  0.22846122D-05 -0.00000000D+00  0.00000000D+00
 -0.17106552D-04  0.00000000D+00 -0.00000000D+00 -0.17613556D-03 -0.00000000D+00
  0.00000000D+00  0.12445872D-07  0.24120406D-08  0.24120406D-08 -0.00000000D+00
  0.00000000D+00  0.00000000D+00  0.58296701D-07  0.56891913D-07  0.56891913D-07
  0.00000000D+00 -0.00000000D+00 -0.00000000D+00
MO    2     MO 0.0        OCC NO =    0.0000000  ORB. ENERGY =    0.002342
 -0.15237935D-04  0.21388507D-02 -0.67826420D-05  0.30819927D-02  0.34382925D-02
  0.87500063D-02  0.10558025D-01 -0.20184991D-01 -0.34382970D-02  0.19750152D-03
  0.37051804D-06 -0.00000000D+00  0.00000000D+00  0.41958456D-04 -0.00000000D+00
  0.00000000D+00 -0.27060344D-04  0.00000000D+00 -0.00000000D+00  0.22005228D-03
 -0.00000000D+00  0.00000000D+00  0.35893757D-08  0.31240635D-08  0.31240635D-08
 -0.00000000D+00 -0.00000000D+00  0.00000000D+00  0.28259323D-06  0.58078926D-07
  0.58078926D-07 -0.00000000D+00  0.00000000D+00 -0.00000000D+00  0.15237935D-04
 -0.21388507D-02  0.67826420D-05 -0.30819927D-02 -0.34382925D-02 -0.87500063D-02
 -0.10558025D-01  0.20184991D-01  0.34382970D-02 -0.19750152D-03  0.37051804D-06
  0.00000000D+00 -0.00000000D+00  0.41958456D-04 -0.00000000D+00 -0.00000000D+00
 -0.27060344D-04  0.00000000D+00  0.00000000D+00  0.22005228D-03 -0.00000000D+00
  0.00000000D+00 -0.35893757D-08 -0.31240635D-08 -0.31240635D-08  0.00000000D+00
  0.00000000D+00 -0.00000000D+00 -0.28259323D-06 -0.58078926D-07 -0.58078926D-07
 -0.00000000D+00 -0.00000000D+00  0.00000000D+00
MO    3     MO 0.0        OCC NO =    0.0000000  ORB. ENERGY =    0.005967
  0.43000278D-03  0.25797486D-03 -0.34015801D-02  0.54515648D-02  0.18118838D-02
  0.75961683D-02  0.68384740D-02 -0.14100870D-01 -0.28211557D-02  0.27109678D-03
 -0.11464942D-04  0.00000000D+00  0.00000000D+00  0.16273005D-04 -0.00000000D+00
  0.00000000D+00 -0.11496932D-03  0.00000000D+00 -0.00000000D+00  0.13121821D-03
 -0.00000000D+00  0.00000000D+00 -0.64541228D-07 -0.44541682D-08 -0.44541682D-08
  0.00000000D+00  0.00000000D+00  0.00000000D+00 -0.21651726D-07 -0.98957387D-07
 -0.98957387D-07  0.00000000D+00  0.00000000D+00 -0.00000000D+00  0.43000278D-03
  0.25797486D-03 -0.34015801D-02  0.54515648D-02  0.18118838D-02  0.75961683D-02
  0.68384740D-02 -0.14100870D-01 -0.28211557D-02  0.27109678D-03  0.11464942D-04
 -0.00000000D+00 -0.00000000D+00 -0.16273005D-04 -0.00000000D+00 -0.00000000D+00
  0.11496932D-03 -0.00000000D+00  0.00000000D+00 -0.13121821D-03 -0.00000000D+00
 -0.00000000D+00 -0.64541228D-07 -0.44541682D-08 -0.44541682D-08 -0.00000000D+00
  0.00000000D+00 -0.00000000D+00 -0.21651726D-07 -0.98957387D-07 -0.98957387D-07
  0.00000000D+00  0.00000000D+00  0.00000000D+00
MO    4     MO 0.0        OCC NO =    0.0000000  ORB. ENERGY =    0.012260
 -0.13036381D-05  0.51525603D-02 -0.32324183D-02 -0.25502652D-02  0.11588199D-01
  0.34051318D-02  0.10378701D-01 -0.16885125D-01 -0.18036085D-02 -0.19685013D-03
 -0.13945324D-05 -0.00000000D+00  0.00000000D+00  0.89214266D-04  0.00000000D+00
 -0.00000000D+00 -0.56407122D-04 -0.00000000D+00  0.00000000D+00 -0.38635000D-03
  0.00000000D+00 -0.00000000D+00 -0.13998590D-07 -0.10951982D-07 -0.10951982D-07
 -0.00000000D+00  0.00000000D+00 -0.00000000D+00  0.33716391D-06 -0.14098539D-06
 -0.14098539D-06  0.00000000D+00 -0.00000000D+00  0.00000000D+00  0.13036381D-05
 -0.51525603D-02  0.32324183D-02  0.25502652D-02 -0.11588199D-01 -0.34051318D-02
 -0.10378701D-01  0.16885125D-01  0.18036085D-02  0.19685013D-03 -0.13945324D-05
  0.00000000D+00 -0.00000000D+00  0.89214266D-04 -0.00000000D+00  0.00000000D+00
 -0.56407122D-04  0.00000000D+00 -0.00000000D+00 -0.38635000D-03 -0.00000000D+00
  0.00000000D+00  0.13998590D-07  0.10951982D-07  0.10951982D-07 -0.00000000D+00
  0.00000000D+00  0.00000000D+00 -0.33716391D-06  0.14098539D-06  0.14098539D-06
  0.00000000D+00 -0.00000000D+00 -0.00000000D+00
MO    5     MO 0.0        OCC NO =    0.0000000  ORB. ENERGY =    0.013516
 -0.00000000D+00  0.00000000D+00 -0.00000000D+00  0.00000000D+00 -0.00000000D+00
  0.00000000D+00 -0.00000000D+00  0.00000000D+00 -0.00000000D+00 -0.00000000D+00
 -0.00000000D+00  0.15964118D-06 -0.75361120D-06  0.00000000D+00 -0.16514798D-05
  0.77960702D-05 -0.00000000D+00  0.22546040D-04 -0.10643212D-03 -0.00000000D+00
  0.47519107D-04 -0.22432140D-03 -0.00000000D+00 -0.00000000D+00 -0.00000000D+00
 -0.34355254D-08  0.16217938D-07  0.00000000D+00  0.00000000D+00 -0.00000000D+00
 -0.00000000D+00  0.39748617D-07 -0.18763960D-06 -0.00000000D+00  0.00000000D+00
 -0.00000000D+00 -0.00000000D+00  0.00000000D+00 -0.00000000D+00  0.00000000D+00
 -0.00000000D+00  0.00000000D+00 -0.00000000D+00  0.00000000D+00 -0.00000000D+00
  0.15964118D-06 -0.75361120D-06  0.00000000D+00 -0.16514798D-05  0.77960702D-05
 -0.00000000D+00  0.22546040D-04 -0.10643212D-03 -0.00000000D+00  0.47519107D-04
 -0.22432140D-03  0.00000000D+00  0.00000000D+00  0.00000000D+00  0.34355254D-08
 -0.16217938D-07 -0.00000000D+00 -0.00000000D+00  0.00000000D+00  0.00000000D+00
 -0.39748617D-07  0.18763960D-06  0.00000000D+00
MO    6     MO 0.0        OCC NO =    0.0000000  ORB. ENERGY =    0.013516
 -0.00000000D+00  0.00000000D+00 -0.00000000D+00  0.00000000D+00 -0.00000000D+00
  0.00000000D+00 -0.00000000D+00  0.00000000D+00 -0.00000000D+00  0.00000000D+00
  0.00000000D+00 -0.75361120D-06 -0.15964118D-06  0.00000000D+00  0.77960702D-05
  0.16514798D-05 -0.00000000D+00 -0.10643212D-03 -0.22546040D-04  0.00000000D+00
 -0.22432140D-03 -0.47519107D-04  0.00000000D+00  0.00000000D+00  0.00000000D+00
  0.16217938D-07  0.34355254D-08 -0.00000000D+00  0.00000000D+00  0.00000000D+00
  0.00000000D+00 -0.18763960D-06 -0.39748617D-07  0.00000000D+00  0.00000000D+00
 -0.00000000D+00  0.00000000D+00 -0.00000000D+00  0.00000000D+00  0.00000000D+00
 -0.00000000D+00  0.00000000D+00 -0.00000000D+00  0.00000000D+00 -0.00000000D+00
 -0.75361120D-06 -0.15964118D-06  0.00000000D+00  0.77960702D-05  0.16514798D-05
 -0.00000000D+00 -0.10643212D-03 -0.22546040D-04  0.00000000D+00 -0.22432140D-03
 -0.47519107D-04  0.00000000D+00 -0.00000000D+00 -0.00000000D+00 -0.16217938D-07
 -0.34355254D-08  0.00000000D+00 -0.00000000D+00 -0.00000000D+00 -0.00000000D+00
  0.18763960D-06  0.39748617D-07 -0.00000000D+00
MO    7     MO 0.0        OCC NO =    0.0000000  ORB. ENERGY =    0.014024
  0.17140328D-03  0.58511282D-03  0.78979591D-03 -0.10908181D-01  0.16218040D-01
 -0.10948453D-02  0.10877809D-01 -0.15178564D-01 -0.50627188D-03 -0.54123423D-03
  0.80252269D-05 -0.00000000D+00  0.00000000D+00 -0.71004023D-05  0.00000000D+00
 -0.00000000D+00  0.13343429D-03 -0.00000000D+00  0.00000000D+00 -0.71412517D-03
  0.00000000D+00 -0.00000000D+00  0.28757415D-07 -0.12675750D-07 -0.12675750D-07
  0.00000000D+00  0.00000000D+00  0.00000000D+00 -0.24152007D-06 -0.27907004D-06
 -0.27907004D-06  0.00000000D+00  0.00000000D+00 -0.00000000D+00  0.17140328D-03
  0.58511282D-03  0.78979591D-03 -0.10908181D-01  0.16218040D-01 -0.10948453D-02
  0.10877809D-01 -0.15178564D-01 -0.50627188D-03 -0.54123423D-03 -0.80252269D-05
  0.00000000D+00 -0.00000000D+00  0.71004023D-05 -0.00000000D+00  0.00000000D+00
 -0.13343429D-03  0.00000000D+00 -0.00000000D+00  0.71412517D-03 -0.00000000D+00
  0.00000000D+00  0.28757415D-07 -0.12675750D-07 -0.12675750D-07 -0.00000000D+00
  0.00000000D+00 -0.00000000D+00 -0.24152007D-06 -0.27907004D-06 -0.27907004D-06
  0.00000000D+00  0.00000000D+00  0.00000000D+00
MO    8     MO 0.0        OCC NO =    0.0000000  ORB. ENERGY =    0.015848
  0.00000000D+00 -0.00000000D+00  0.00000000D+00 -0.00000000D+00  0.00000000D+00
 -0.00000000D+00  0.00000000D+00 -0.00000000D+00 -0.00000000D+00  0.00000000D+00
 -0.00000000D+00 -0.15633907D-08 -0.98182306D-09 -0.00000000D+00 -0.26259778D-05
 -0.16492061D-05  0.00000000D+00 -0.56421116D-05 -0.35434455D-05 -0.00000000D+00
 -0.51896634D-03 -0.32592910D-03 -0.00000000D+00 -0.00000000D+00 -0.00000000D+00
  0.16395561D-08  0.10296998D-08  0.00000000D+00 -0.00000000D+00 -0.00000000D+00
 -0.00000000D+00 -0.71229116D-07 -0.44734392D-07 -0.00000000D+00 -0.00000000D+00
  0.00000000D+00 -0.00000000D+00  0.00000000D+00 -0.00000000D+00  0.00000000D+00
 -0.00000000D+00  0.00000000D+00 -0.00000000D+00  0.00000000D+00 -0.00000000D+00
  0.15633907D-08  0.98182306D-09 -0.00000000D+00  0.26259778D-05  0.16492061D-05
  0.00000000D+00  0.56421116D-05  0.35434455D-05 -0.00000000D+00  0.51896634D-03
  0.32592910D-03  0.00000000D+00  0.00000000D+00  0.00000000D+00  0.16395561D-08
  0.10296998D-08 -0.00000000D+00  0.00000000D+00  0.00000000D+00  0.00000000D+00
 -0.71229116D-07 -0.44734392D-07  0.00000000D+00
MO    9     MO 0.0        OCC NO =    0.0000000  ORB. ENERGY =    0.015848
 -0.00000000D+00  0.00000000D+00 -0.00000000D+00  0.00000000D+00 -0.00000000D+00
  0.00000000D+00 -0.00000000D+00  0.00000000D+00 -0.00000000D+00  0.00000000D+00
  0.00000000D+00  0.98182306D-09 -0.15633907D-08  0.00000000D+00  0.16492061D-05
 -0.26259778D-05 -0.00000000D+00  0.35434455D-05 -0.56421116D-05  0.00000000D+00
  0.32592910D-03 -0.51896634D-03  0.00000000D+00  0.00000000D+00  0.00000000D+00
 -0.10296998D-08  0.16395561D-08 -0.00000000D+00  0.00000000D+00  0.00000000D+00
  0.00000000D+00  0.44734392D-07 -0.71229116D-07  0.00000000D+00  0.00000000D+00
 -0.00000000D+00  0.00000000D+00 -0.00000000D+00  0.00000000D+00 -0.00000000D+00
 -0.00000000D+00 -0.00000000D+00  0.00000000D+00  0.00000000D+00  0.00000000D+00
 -0.98182306D-09  0.15633907D-08  0.00000000D+00 -0.16492061D-05  0.26259778D-05
 -0.00000000D+00 -0.35434455D-05  0.56421116D-05  0.00000000D+00 -0.32592910D-03
  0.51896634D-03 -0.00000000D+00 -0.00000000D+00 -0.00000000D+00 -0.10296998D-08
  0.16395561D-08  0.00000000D+00 -0.00000000D+00 -0.00000000D+00 -0.00000000D+00
  0.44734392D-07 -0.71229116D-07 -0.00000000D+00
MO   10     MO 0.0        OCC NO =    0.0000000  ORB. ENERGY =    0.018877
 -0.88069443D-04  0.21660334D-01 -0.98061050D-02  0.14324992D-01 -0.11468941D-01
  0.26167140D-02 -0.54483627D-02  0.65441374D-02 -0.29678437D-03  0.40156432D-03
 -0.59640676D-06 -0.00000000D+00  0.00000000D+00  0.40306530D-03  0.00000000D+00
 -0.00000000D+00 -0.35997600D-03 -0.00000000D+00  0.00000000D+00  0.60084813D-03
  0.00000000D+00 -0.00000000D+00 -0.40594809D-08 -0.46156316D-08 -0.46156316D-08
 -0.00000000D+00  0.00000000D+00 -0.00000000D+00  0.21898773D-05  0.79384911D-07
  0.79384911D-07  0.00000000D+00 -0.00000000D+00  0.00000000D+00  0.88069443D-04
 -0.21660334D-01  0.98061050D-02 -0.14324992D-01  0.11468941D-01 -0.26167140D-02
  0.54483627D-02 -0.65441374D-02  0.29678437D-03 -0.40156432D-03 -0.59640676D-06
  0.00000000D+00 -0.00000000D+00  0.40306530D-03 -0.00000000D+00  0.00000000D+00
 -0.35997600D-03 -0.00000000D+00 -0.00000000D+00  0.60084813D-03  0.00000000D+00
  0.00000000D+00  0.40594809D-08  0.46156316D-08  0.46156316D-08 -0.00000000D+00
  0.00000000D+00  0.00000000D+00 -0.21898773D-05 -0.79384911D-07 -0.79384911D-07
  0.00000000D+00 -0.00000000D+00 -0.00000000D+00
MO   11     MO 0.0        OCC NO =    0.0000000  ORB. ENERGY =    0.019755
  0.00000000D+00  0.00000000D+00  0.00000000D+00 -0.00000000D+00  0.00000000D+00
 -0.00000000D+00  0.00000000D+00 -0.00000000D+00 -0.00000000D+00  0.00000000D+00
 -0.00000000D+00 -0.27666941D-07  0.10609151D-05  0.00000000D+00  0.30491969D-06
 -0.11692414D-04 -0.00000000D+00 -0.52028719D-05  0.19950887D-03  0.00000000D+00
  0.22577230D-04 -0.86574436D-03 -0.00000000D+00  0.00000000D+00  0.00000000D+00
  0.53208880D-09 -0.20403432D-07 -0.00000000D+00  0.00000000D+00  0.00000000D+00
  0.00000000D+00 -0.63774346D-08  0.24454844D-06  0.00000000D+00  0.00000000D+00
 -0.00000000D+00 -0.00000000D+00 -0.00000000D+00 -0.00000000D+00  0.00000000D+00
  0.00000000D+00 -0.00000000D+00  0.00000000D+00 -0.00000000D+00  0.00000000D+00
 -0.27666941D-07  0.10609151D-05  0.00000000D+00  0.30491969D-06 -0.11692414D-04
 -0.00000000D+00 -0.52028719D-05  0.19950887D-03  0.00000000D+00  0.22577230D-04
 -0.86574436D-03 -0.00000000D+00 -0.00000000D+00 -0.00000000D+00 -0.53208880D-09
  0.20403432D-07  0.00000000D+00 -0.00000000D+00 -0.00000000D+00 -0.00000000D+00
  0.63774346D-08 -0.24454844D-06 -0.00000000D+00
MO   12     MO 0.0        OCC NO =    0.0000000  ORB. ENERGY =    0.019755
  0.00000000D+00 -0.00000000D+00 -0.00000000D+00  0.00000000D+00 -0.00000000D+00
  0.00000000D+00 -0.00000000D+00  0.00000000D+00 -0.00000000D+00  0.00000000D+00
 -0.00000000D+00  0.10609151D-05  0.27666941D-07 -0.00000000D+00 -0.11692414D-04
 -0.30491969D-06 -0.00000000D+00  0.19950887D-03  0.52028719D-05  0.00000000D+00
 -0.86574436D-03 -0.22577230D-04 -0.00000000D+00 -0.00000000D+00 -0.00000000D+00
 -0.20403432D-07 -0.53208880D-09  0.00000000D+00 -0.00000000D+00 -0.00000000D+00
 -0.00000000D+00  0.24454844D-06  0.63774346D-08 -0.00000000D+00  0.00000000D+00
  0.00000000D+00  0.00000000D+00 -0.00000000D+00  0.00000000D+00 -0.00000000D+00
  0.00000000D+00 -0.00000000D+00  0.00000000D+00  0.00000000D+00  0.00000000D+00
  0.10609151D-05  0.27666941D-07 -0.00000000D+00 -0.11692414D-04 -0.30491969D-06
 -0.00000000D+00  0.19950887D-03  0.52028719D-05  0.00000000D+00 -0.86574436D-03
 -0.22577230D-04 -0.00000000D+00  0.00000000D+00  0.00000000D+00  0.20403432D-07
  0.53208880D-09 -0.00000000D+00  0.00000000D+00  0.00000000D+00  0.00000000D+00
 -0.24454844D-06 -0.63774346D-08  0.00000000D+00
MO   13     MO 0.0        OCC NO =    0.0000000  ORB. ENERGY =    0.023807
 -0.32466070D-03 -0.96436689D-04  0.52628947D-03 -0.79778670D-02  0.12257139D-01
  0.94770526D-03  0.67477933D-02 -0.10237714D-01 -0.81775467D-03 -0.21617866D-03
  0.75376971D-05 -0.00000000D+00  0.00000000D+00 -0.92595531D-05  0.00000000D+00
 -0.00000000D+00  0.47953526D-04  0.00000000D+00  0.00000000D+00  0.25972006D-03
 -0.00000000D+00 -0.00000000D+00  0.44215933D-07  0.45221251D-08  0.45221251D-08
 -0.00000000D+00  0.00000000D+00  0.00000000D+00  0.36391115D-07  0.77004594D-07
  0.77004594D-07  0.00000000D+00 -0.00000000D+00 -0.00000000D+00 -0.32466070D-03
 -0.96436689D-04  0.52628947D-03 -0.79778670D-02  0.12257139D-01  0.94770526D-03
  0.67477933D-02 -0.10237714D-01 -0.81775467D-03 -0.21617866D-03 -0.75376971D-05
  0.00000000D+00 -0.00000000D+00  0.92595531D-05 -0.00000000D+00  0.00000000D+00
 -0.47953526D-04 -0.00000000D+00 -0.00000000D+00 -0.25972006D-03  0.00000000D+00
  0.00000000D+00  0.44215933D-07  0.45221251D-08  0.45221251D-08 -0.00000000D+00
  0.00000000D+00 -0.00000000D+00  0.36391115D-07  0.77004594D-07  0.77004594D-07
  0.00000000D+00 -0.00000000D+00  0.00000000D+00
MO   14     MO 0.0        OCC NO =    0.0000000  ORB. ENERGY =    0.025596
  0.20554041D-04 -0.54453517D-02  0.46431042D-02 -0.13693026D-01  0.15579427D-01
  0.26994752D-03  0.76748138D-02 -0.11229230D-01 -0.71500084D-03 -0.29696289D-03
  0.30926286D-06  0.00000000D+00 -0.00000000D+00 -0.10322736D-03 -0.00000000D+00
  0.00000000D+00  0.16652092D-03  0.00000000D+00 -0.00000000D+00  0.26715757D-03
 -0.00000000D+00  0.00000000D+00  0.77522634D-09  0.37625021D-08  0.37625021D-08
  0.00000000D+00 -0.00000000D+00 -0.00000000D+00 -0.53938944D-06 -0.35811886D-07
 -0.35811886D-07 -0.00000000D+00  0.00000000D+00 -0.00000000D+00 -0.20554041D-04
  0.54453517D-02 -0.46431042D-02  0.13693026D-01 -0.15579427D-01 -0.26994752D-03
 -0.76748138D-02  0.11229230D-01  0.71500084D-03  0.29696289D-03  0.30926286D-06
 -0.00000000D+00  0.00000000D+00 -0.10322736D-03  0.00000000D+00 -0.00000000D+00
  0.16652092D-03 -0.00000000D+00  0.00000000D+00  0.26715757D-03  0.00000000D+00
 -0.00000000D+00 -0.77522634D-09 -0.37625021D-08 -0.37625021D-08  0.00000000D+00
 -0.00000000D+00  0.00000000D+00  0.53938944D-06  0.35811886D-07  0.35811886D-07
 -0.00000000D+00  0.00000000D+00 -0.00000000D+00
MO   15     MO 0.0        OCC NO =    0.0000000  ORB. ENERGY =    0.025695
 -0.00000000D+00  0.00000000D+00  0.00000000D+00 -0.00000000D+00  0.00000000D+00
  0.00000000D+00  0.00000000D+00 -0.00000000D+00 -0.00000000D+00  0.00000000D+00
 -0.00000000D+00 -0.32265030D-04 -0.11307844D-04  0.00000000D+00  0.34233444D-04
  0.11997709D-04  0.00000000D+00 -0.30898235D-03 -0.10828827D-03  0.00000000D+00
  0.68512478D-03  0.24011395D-03 -0.00000000D+00  0.00000000D+00  0.00000000D+00
 -0.15891398D-06 -0.55694181D-07 -0.00000000D+00  0.00000000D+00  0.00000000D+00
  0.00000000D+00  0.92086744D-07  0.32273416D-07  0.00000000D+00  0.00000000D+00
 -0.00000000D+00 -0.00000000D+00  0.00000000D+00 -0.00000000D+00  0.00000000D+00
 -0.00000000D+00  0.00000000D+00  0.00000000D+00 -0.00000000D+00  0.00000000D+00
  0.32265030D-04  0.11307844D-04  0.00000000D+00 -0.34233444D-04 -0.11997709D-04
  0.00000000D+00  0.30898235D-03  0.10828827D-03  0.00000000D+00 -0.68512478D-03
 -0.24011395D-03 -0.00000000D+00 -0.00000000D+00 -0.00000000D+00 -0.15891398D-06
 -0.55694181D-07  0.00000000D+00 -0.00000000D+00 -0.00000000D+00 -0.00000000D+00
  0.92086744D-07  0.32273416D-07 -0.00000000D+00
MO   16     MO 0.0        OCC NO =    0.0000000  ORB. ENERGY =    0.025695
 -0.00000000D+00  0.00000000D+00  0.00000000D+00 -0.00000000D+00  0.00000000D+00
 -0.00000000D+00  0.00000000D+00 -0.00000000D+00 -0.00000000D+00 -0.00000000D+00
  0.00000000D+00 -0.11307844D-04  0.32265030D-04  0.00000000D+00  0.11997709D-04
 -0.34233444D-04  0.00000000D+00 -0.10828827D-03  0.30898235D-03  0.00000000D+00
  0.24011395D-03 -0.68512478D-03  0.00000000D+00  0.00000000D+00  0.00000000D+00
 -0.55694181D-07  0.15891398D-06  0.00000000D+00  0.00000000D+00  0.00000000D+00
  0.00000000D+00  0.32273416D-07 -0.92086744D-07 -0.00000000D+00  0.00000000D+00
 -0.00000000D+00 -0.00000000D+00  0.00000000D+00 -0.00000000D+00 -0.00000000D+00
 -0.00000000D+00  0.00000000D+00  0.00000000D+00  0.00000000D+00  0.00000000D+00
  0.11307844D-04 -0.32265030D-04  0.00000000D+00 -0.11997709D-04  0.34233444D-04
  0.00000000D+00  0.10828827D-03 -0.30898235D-03  0.00000000D+00 -0.24011395D-03
  0.68512478D-03 -0.00000000D+00 -0.00000000D+00 -0.00000000D+00 -0.55694181D-07
  0.15891398D-06 -0.00000000D+00 -0.00000000D+00 -0.00000000D+00 -0.00000000D+00
  0.32273416D-07 -0.92086744D-07 -0.00000000D+00
MO   17     MO 0.0        OCC NO =    0.0000000  ORB. ENERGY =    0.031103
  0.39228464D-02  0.34663438D-02 -0.15028649D-01  0.13137669D-01 -0.74284210D-02
 -0.21417540D-02 -0.22858130D-02  0.44592575D-02  0.83839169D-03 -0.59300199D-04
 -0.51563251D-04  0.00000000D+00 -0.00000000D+00  0.91241000D-04  0.00000000D+00
  0.00000000D+00 -0.20096174D-03  0.00000000D+00  0.00000000D+00  0.51201688D-03
 -0.00000000D+00 -0.00000000D+00 -0.37226767D-06 -0.87946014D-07 -0.87946014D-07
  0.00000000D+00 -0.00000000D+00 -0.00000000D+00 -0.86897127D-06 -0.17951963D-05
 -0.17951963D-05  0.00000000D+00  0.00000000D+00 -0.00000000D+00  0.39228464D-02
  0.34663438D-02 -0.15028649D-01  0.13137669D-01 -0.74284210D-02 -0.21417540D-02
 -0.22858130D-02  0.44592575D-02  0.83839169D-03 -0.59300199D-04  0.51563251D-04
 -0.00000000D+00  0.00000000D+00 -0.91241000D-04 -0.00000000D+00 -0.00000000D+00
  0.20096174D-03 -0.00000000D+00 -0.00000000D+00 -0.51201688D-03  0.00000000D+00
  0.00000000D+00 -0.37226767D-06 -0.87946014D-07 -0.87946014D-07  0.00000000D+00
 -0.00000000D+00  0.00000000D+00 -0.86897127D-06 -0.17951963D-05 -0.17951963D-05
  0.00000000D+00  0.00000000D+00  0.00000000D+00
MO   18     MO 0.0        OCC NO =    0.0000000  ORB. ENERGY =    0.031972
  0.71822560D-03  0.21702469D-02 -0.10299046D-01  0.16211842D-01 -0.13207478D-01
 -0.78965166D-03 -0.50934139D-02  0.77496572D-02  0.65255984D-03  0.15668896D-03
  0.79192971D-05  0.00000000D+00 -0.00000000D+00 -0.86217816D-06  0.00000000D+00
  0.00000000D+00  0.16731762D-03 -0.00000000D+00 -0.00000000D+00 -0.46762023D-03
  0.00000000D+00 -0.00000000D+00  0.85707939D-08 -0.31464760D-07 -0.31464760D-07
  0.00000000D+00 -0.00000000D+00 -0.00000000D+00 -0.58800466D-06 -0.73254088D-06
 -0.73254088D-06 -0.00000000D+00  0.00000000D+00  0.00000000D+00  0.71822560D-03
  0.21702469D-02 -0.10299046D-01  0.16211842D-01 -0.13207478D-01 -0.78965166D-03
 -0.50934139D-02  0.77496572D-02  0.65255984D-03  0.15668896D-03 -0.79192971D-05
 -0.00000000D+00  0.00000000D+00  0.86217816D-06 -0.00000000D+00 -0.00000000D+00
 -0.16731762D-03  0.00000000D+00  0.00000000D+00  0.46762023D-03  0.00000000D+00
  0.00000000D+00  0.85707939D-08 -0.31464760D-07 -0.31464760D-07  0.00000000D+00
 -0.00000000D+00  0.00000000D+00 -0.58800466D-06 -0.73254088D-06 -0.73254088D-06
  0.00000000D+00  0.00000000D+00 -0.00000000D+00
MO   19     MO 0.0        OCC NO =    0.0000000  ORB. ENERGY =    0.032888
 -0.10904707D-03  0.19189620D-01  0.16707753D-02 -0.76200965D-02  0.76857523D-02
 -0.65098055D-03  0.31486921D-02 -0.41789659D-02 -0.66820906D-04 -0.17646754D-03
  0.15299322D-05 -0.00000000D+00  0.00000000D+00  0.38336255D-03  0.00000000D+00
 -0.00000000D+00 -0.40176011D-03 -0.00000000D+00  0.00000000D+00  0.57818138D-03
 -0.00000000D+00 -0.00000000D+00  0.16184783D-07  0.10818864D-07  0.10818864D-07
 -0.00000000D+00  0.00000000D+00 -0.00000000D+00  0.24206141D-05  0.41627445D-06
  0.41627445D-06  0.00000000D+00 -0.00000000D+00  0.00000000D+00  0.10904707D-03
 -0.19189620D-01 -0.16707753D-02  0.76200965D-02 -0.76857523D-02  0.65098055D-03
 -0.31486921D-02  0.41789659D-02  0.66820906D-04  0.17646754D-03  0.15299322D-05
  0.00000000D+00 -0.00000000D+00  0.38336255D-03 -0.00000000D+00  0.00000000D+00
 -0.40176011D-03  0.00000000D+00 -0.00000000D+00  0.57818138D-03 -0.00000000D+00
  0.00000000D+00 -0.16184783D-07 -0.10818864D-07 -0.10818864D-07 -0.00000000D+00
  0.00000000D+00  0.00000000D+00 -0.24206141D-05 -0.41627445D-06 -0.41627445D-06
  0.00000000D+00 -0.00000000D+00 -0.00000000D+00
MO   20     MO 0.0        OCC NO =    0.0000000  ORB. ENERGY =    0.039525
 -0.73328369D-03 -0.92751591D-02  0.16123821D-01 -0.11945068D-01  0.49624587D-02
  0.40867667D-02  0.98260785D-03 -0.34516060D-02 -0.11698828D-02  0.20958185D-03
  0.48921800D-04  0.00000000D+00  0.00000000D+00 -0.16801418D-03 -0.00000000D+00
 -0.00000000D+00 -0.80663259D-04  0.00000000D+00  0.00000000D+00  0.88496730D-04
 -0.00000000D+00 -0.00000000D+00  0.63021492D-06  0.55622257D-06  0.55622257D-06
  0.00000000D+00  0.00000000D+00  0.00000000D+00  0.29067861D-05  0.37267166D-05
  0.37267166D-05 -0.00000000D+00 -0.00000000D+00 -0.00000000D+00  0.73328369D-03
  0.92751591D-02 -0.16123821D-01  0.11945068D-01 -0.49624587D-02 -0.40867667D-02
 -0.98260785D-03  0.34516060D-02  0.11698828D-02 -0.20958185D-03  0.48921800D-04
 -0.00000000D+00 -0.00000000D+00 -0.16801418D-03  0.00000000D+00  0.00000000D+00
 -0.80663259D-04 -0.00000000D+00 -0.00000000D+00  0.88496730D-04  0.00000000D+00
  0.00000000D+00 -0.63021492D-06 -0.55622257D-06 -0.55622257D-06  0.00000000D+00
  0.00000000D+00 -0.00000000D+00 -0.29067861D-05 -0.37267166D-05 -0.37267166D-05
 -0.00000000D+00 -0.00000000D+00  0.00000000D+00
MO   21     MO 0.0        OCC NO =    0.0000000  ORB. ENERGY =    0.042365
 -0.00000000D+00 -0.00000000D+00  0.00000000D+00 -0.00000000D+00  0.00000000D+00
 -0.00000000D+00  0.00000000D+00  0.00000000D+00  0.00000000D+00  0.00000000D+00
  0.00000000D+00 -0.00000000D+00 -0.00000000D+00 -0.00000000D+00  0.00000000D+00
  0.00000000D+00  0.00000000D+00 -0.00000000D+00  0.00000000D+00  0.00000000D+00
  0.00000000D+00 -0.00000000D+00  0.00000000D+00 -0.52848484D-07  0.52848484D-07
 -0.00000000D+00 -0.00000000D+00  0.31876835D-08  0.00000000D+00  0.68025563D-06
 -0.68025563D-06  0.00000000D+00  0.00000000D+00 -0.41031240D-07 -0.00000000D+00
  0.00000000D+00  0.00000000D+00  0.00000000D+00 -0.00000000D+00 -0.00000000D+00
  0.00000000D+00 -0.00000000D+00  0.00000000D+00 -0.00000000D+00 -0.00000000D+00
  0.00000000D+00  0.00000000D+00 -0.00000000D+00 -0.00000000D+00 -0.00000000D+00
 -0.00000000D+00 -0.00000000D+00  0.00000000D+00  0.00000000D+00  0.00000000D+00
 -0.00000000D+00  0.00000000D+00 -0.52848484D-07  0.52848484D-07 -0.00000000D+00
 -0.00000000D+00  0.31876835D-08  0.00000000D+00  0.68025563D-06 -0.68025563D-06
 -0.00000000D+00  0.00000000D+00 -0.41031240D-07
MO   22     MO 0.0        OCC NO =    0.0000000  ORB. ENERGY =    0.042365
 -0.00000000D+00  0.00000000D+00 -0.00000000D+00  0.00000000D+00 -0.00000000D+00
 -0.00000000D+00  0.00000000D+00  0.00000000D+00  0.00000000D+00  0.00000000D+00
  0.00000000D+00  0.00000000D+00 -0.00000000D+00  0.00000000D+00 -0.00000000D+00
  0.00000000D+00  0.00000000D+00  0.00000000D+00 -0.00000000D+00 -0.00000000D+00
 -0.00000000D+00  0.00000000D+00  0.00000000D+00  0.15938408D-08 -0.15938408D-08
  0.00000000D+00 -0.00000000D+00  0.10569697D-06  0.00000000D+00 -0.20515623D-07
  0.20515623D-07 -0.00000000D+00  0.00000000D+00 -0.13605112D-05 -0.00000000D+00
 -0.00000000D+00  0.00000000D+00 -0.00000000D+00  0.00000000D+00  0.00000000D+00
  0.00000000D+00 -0.00000000D+00 -0.00000000D+00  0.00000000D+00 -0.00000000D+00
 -0.00000000D+00  0.00000000D+00  0.00000000D+00  0.00000000D+00 -0.00000000D+00
 -0.00000000D+00 -0.00000000D+00  0.00000000D+00  0.00000000D+00  0.00000000D+00
 -0.00000000D+00  0.00000000D+00  0.15938408D-08 -0.15938408D-08  0.00000000D+00
 -0.00000000D+00  0.10569697D-06 -0.00000000D+00 -0.20515623D-07  0.20515623D-07
 -0.00000000D+00  0.00000000D+00 -0.13605112D-05
MO   23     MO 0.0        OCC NO =    0.0000000  ORB. ENERGY =    0.042739
 -0.74357406D-02  0.32682819D-02  0.17984660D-02  0.34531299D-03  0.17804053D-03
 -0.14682148D-02  0.22509406D-03  0.39905770D-03  0.36258693D-03 -0.96583408D-04
  0.10792803D-03 -0.00000000D+00 -0.00000000D+00 -0.40941528D-04  0.00000000D+00
  0.00000000D+00  0.41866253D-04 -0.00000000D+00 -0.00000000D+00 -0.29503890D-04
  0.00000000D+00  0.00000000D+00  0.84409607D-06  0.19484905D-06  0.19484905D-06
 -0.00000000D+00 -0.00000000D+00 -0.00000000D+00  0.89715205D-06  0.14494265D-05
  0.14494265D-05  0.00000000D+00  0.00000000D+00  0.00000000D+00 -0.74357406D-02
  0.32682819D-02  0.17984660D-02  0.34531299D-03  0.17804053D-03 -0.14682148D-02
  0.22509406D-03  0.39905770D-03  0.36258693D-03 -0.96583408D-04 -0.10792803D-03
  0.00000000D+00  0.00000000D+00  0.40941528D-04  0.00000000D+00 -0.00000000D+00
 -0.41866253D-04 -0.00000000D+00  0.00000000D+00  0.29503890D-04  0.00000000D+00
 -0.00000000D+00  0.84409607D-06  0.19484905D-06  0.19484905D-06 -0.00000000D+00
 -0.00000000D+00 -0.00000000D+00  0.89715205D-06  0.14494265D-05  0.14494265D-05
 -0.00000000D+00  0.00000000D+00  0.00000000D+00
MO   24     MO 0.0        OCC NO =    0.0000000  ORB. ENERGY =    0.042855
  0.43261695D-03 -0.60105054D-01  0.12666597D-01 -0.10734537D-01  0.21362435D-02
  0.89415194D-02 -0.51680633D-03 -0.36318921D-02 -0.22584437D-02  0.54649273D-03
 -0.10146075D-04  0.00000000D+00 -0.00000000D+00 -0.93515947D-03 -0.00000000D+00
  0.00000000D+00 -0.47994662D-04  0.00000000D+00 -0.00000000D+00  0.92519461D-04
 -0.00000000D+00  0.00000000D+00 -0.20768308D-06 -0.25893110D-06 -0.25893110D-06
  0.00000000D+00 -0.00000000D+00  0.00000000D+00 -0.47648022D-05  0.70772932D-06
  0.70772932D-06 -0.00000000D+00  0.00000000D+00 -0.00000000D+00 -0.43261695D-03
  0.60105054D-01 -0.12666597D-01  0.10734537D-01 -0.21362435D-02 -0.89415194D-02
  0.51680633D-03  0.36318921D-02  0.22584437D-02 -0.54649273D-03 -0.10146075D-04
 -0.00000000D+00  0.00000000D+00 -0.93515947D-03  0.00000000D+00 -0.00000000D+00