 Molden2AIM, Version 3.1.0 (02/25/2015)           Time: Thu Oct 17 19:55:17 2024
GAUSSIAN             68 MOL ORBITALS     68 PRIMITIVES        2 NUCLEI
  Be   1    (CENTRE  1)   0.00000000  0.00000000  0.00000000  CHARGE =  4.0
  Be   2    (CENTRE  2)  44.00000000  0.00000000  0.00000000  CHARGE =  4.0
CENTRE ASSIGNMENTS    1  1  1  1  1  1  1  1  1  1  1  1  1  1  1  1  1  1  1  1
CENTRE ASSIGNMENTS    1  1  1  1  1  1  1  1  1  1  1  1  1  1  2  2  2  2  2  2
CENTRE ASSIGNMENTS    2  2  2  2  2  2  2  2  2  2  2  2  2  2  2  2  2  2  2  2
CENTRE ASSIGNMENTS    2  2  2  2  2  2  2  2
TYPE ASSIGNMENTS      1  1  1  1  1  1  1  1  1  1  2  3  4  2  3  4  2  3  4  2
TYPE ASSIGNMENTS      3  4  5  6  7  8  9 10  5  6  7  8  9 10  1  1  1  1  1  1
TYPE ASSIGNMENTS      1  1  1  1  2  3  4  2  3  4  2  3  4  2  3  4  5  6  7  8
TYPE ASSIGNMENTS      9 10  5  6  7  8  9 10
EXPONENTS  0.1000000D-03 0.3000000D-03 0.9000000D-03 0.2700000D-02 0.8100000D-02
EXPONENTS  0.2430000D-01 0.7290000D-01 0.2187000D+00 0.6561000D+00 0.1968300D+01
EXPONENTS  0.1000000D-03 0.1000000D-03 0.1000000D-03 0.3000000D-03 0.3000000D-03
EXPONENTS  0.3000000D-03 0.9000000D-03 0.9000000D-03 0.9000000D-03 0.2700000D-02
EXPONENTS  0.2700000D-02 0.2700000D-02 0.1000000D-03 0.1000000D-03 0.1000000D-03
EXPONENTS  0.1000000D-03 0.1000000D-03 0.1000000D-03 0.3000000D-03 0.3000000D-03
EXPONENTS  0.3000000D-03 0.3000000D-03 0.3000000D-03 0.3000000D-03 0.1000000D-03
EXPONENTS  0.3000000D-03 0.9000000D-03 0.2700000D-02 0.8100000D-02 0.2430000D-01
EXPONENTS  0.7290000D-01 0.2187000D+00 0.6561000D+00 0.1968300D+01 0.1000000D-03
EXPONENTS  0.1000000D-03 0.1000000D-03 0.3000000D-03 0.3000000D-03 0.3000000D-03
EXPONENTS  0.9000000D-03 0.9000000D-03 0.9000000D-03 0.2700000D-02 0.2700000D-02
EXPONENTS  0.2700000D-02 0.1000000D-03 0.1000000D-03 0.1000000D-03 0.1000000D-03
EXPONENTS  0.1000000D-03 0.1000000D-03 0.3000000D-03 0.3000000D-03 0.3000000D-03
EXPONENTS  0.3000000D-03 0.3000000D-03 0.3000000D-03
MO    1     MO 0.0        OCC NO =    1.0000000  ORB. ENERGY =   -0.002549
  0.27244592D-06  0.41188496D-04 -0.15893158D-03 -0.17564361D-02 -0.54986437D-02
 -0.85376171D-02 -0.11939804D-01  0.22040575D-01  0.34567830D-02 -0.11643305D-03
  0.11388420D-06  0.00000000D+00  0.00000000D+00 -0.65545414D-06 -0.00000000D+00
 -0.00000000D+00 -0.19754653D-06  0.00000000D+00  0.00000000D+00 -0.90739503D-04
 -0.00000000D+00 -0.00000000D+00  0.54310020D-09 -0.10432846D-09 -0.10432846D-09
  0.00000000D+00  0.00000000D+00 -0.00000000D+00 -0.14646912D-07 -0.41182612D-08
 -0.41182612D-08 -0.00000000D+00 -0.00000000D+00  0.00000000D+00  0.27244592D-06
  0.41188496D-04 -0.15893158D-03 -0.17564361D-02 -0.54986437D-02 -0.85376171D-02
 -0.11939804D-01  0.22040575D-01  0.34567830D-02 -0.11643305D-03 -0.11388420D-06
 -0.00000000D+00 -0.00000000D+00  0.65545414D-06  0.00000000D+00  0.00000000D+00
  0.19754653D-06 -0.00000000D+00 -0.00000000D+00  0.90739503D-04  0.00000000D+00
  0.00000000D+00  0.54310020D-09 -0.10432846D-09 -0.10432846D-09  0.00000000D+00
  0.00000000D+00  0.00000000D+00 -0.14646912D-07 -0.41182612D-08 -0.41182612D-08
 -0.00000000D+00 -0.00000000D+00  0.00000000D+00
MO    2     MO 0.0        OCC NO =    0.0000000  ORB. ENERGY =   -0.002304
 -0.99169331D-05  0.15433510D-02 -0.98955100D-05  0.22409021D-02  0.52711041D-02
  0.93882450D-02  0.12137256D-01 -0.22799444D-01 -0.37397470D-02  0.17374354D-03
  0.13656720D-06 -0.00000000D+00 -0.00000000D+00  0.23525943D-04  0.00000000D+00
  0.00000000D+00 -0.10282948D-04  0.00000000D+00 -0.00000000D+00  0.11480334D-03
 -0.00000000D+00  0.00000000D+00  0.17064401D-08  0.15555271D-08  0.15555271D-08
 -0.00000000D+00 -0.00000000D+00  0.00000000D+00  0.13141186D-06  0.26372132D-07
  0.26372132D-07  0.00000000D+00  0.00000000D+00 -0.00000000D+00  0.99169331D-05
 -0.15433510D-02  0.98955100D-05 -0.22409021D-02 -0.52711041D-02 -0.93882450D-02
 -0.12137256D-01  0.22799444D-01  0.37397470D-02 -0.17374354D-03  0.13656720D-06
  0.00000000D+00  0.00000000D+00  0.23525943D-04 -0.00000000D+00 -0.00000000D+00
 -0.10282948D-04  0.00000000D+00  0.00000000D+00  0.11480334D-03 -0.00000000D+00
 -0.00000000D+00 -0.17064401D-08 -0.15555271D-08 -0.15555271D-08 -0.00000000D+00
 -0.00000000D+00 -0.00000000D+00 -0.13141186D-06 -0.26372132D-07 -0.26372132D-07
  0.00000000D+00  0.00000000D+00  0.00000000D+00
MO    3     MO 0.0        OCC NO =    0.0000000  ORB. ENERGY =    0.004562
 -0.43704322D-03 -0.21757339D-03  0.34997319D-02 -0.45422334D-02 -0.17813855D-02
 -0.54903205D-02 -0.44777336D-02  0.94556716D-02  0.19802285D-02 -0.20695260D-03
  0.13606864D-04 -0.00000000D+00  0.00000000D+00 -0.17310187D-04  0.00000000D+00
 -0.00000000D+00  0.10033249D-03 -0.00000000D+00 -0.00000000D+00 -0.29042223D-04
  0.00000000D+00  0.00000000D+00  0.65046988D-07  0.46554761D-08  0.46554761D-08
 -0.00000000D+00  0.00000000D+00 -0.00000000D+00 -0.80519855D-08  0.10584788D-06
  0.10584788D-06  0.00000000D+00  0.00000000D+00  0.00000000D+00 -0.43704322D-03
 -0.21757339D-03  0.34997319D-02 -0.45422334D-02 -0.17813855D-02 -0.54903205D-02
 -0.44777336D-02  0.94556716D-02  0.19802285D-02 -0.20695260D-03 -0.13606864D-04
  0.00000000D+00 -0.00000000D+00  0.17310187D-04 -0.00000000D+00 -0.00000000D+00
 -0.10033249D-03 -0.00000000D+00  0.00000000D+00  0.29042223D-04  0.00000000D+00
  0.00000000D+00  0.65046988D-07  0.46554761D-08  0.46554761D-08 -0.00000000D+00
 -0.00000000D+00  0.00000000D+00 -0.80519855D-08  0.10584788D-06  0.10584788D-06
  0.00000000D+00 -0.00000000D+00 -0.00000000D+00
MO    4     MO 0.0        OCC NO =    0.0000000  ORB. ENERGY =    0.008761
 -0.00000000D+00  0.00000000D+00 -0.00000000D+00  0.00000000D+00  0.00000000D+00
  0.00000000D+00  0.00000000D+00 -0.00000000D+00  0.00000000D+00 -0.00000000D+00
  0.00000000D+00  0.24579131D-06  0.42962285D-06  0.00000000D+00 -0.27333204D-05
 -0.47776176D-05 -0.00000000D+00  0.35780347D-04  0.62541075D-04  0.00000000D+00
  0.17704339D-03  0.30945713D-03  0.00000000D+00  0.00000000D+00  0.00000000D+00
 -0.37909061D-08 -0.66261910D-08  0.00000000D+00  0.00000000D+00  0.00000000D+00
  0.00000000D+00  0.53817087D-07  0.94067809D-07  0.00000000D+00  0.00000000D+00
 -0.00000000D+00  0.00000000D+00 -0.00000000D+00  0.00000000D+00 -0.00000000D+00
 -0.00000000D+00  0.00000000D+00 -0.00000000D+00 -0.00000000D+00 -0.00000000D+00
  0.24579131D-06  0.42962285D-06  0.00000000D+00 -0.27333204D-05 -0.47776176D-05
 -0.00000000D+00  0.35780347D-04  0.62541075D-04  0.00000000D+00  0.17704339D-03
  0.30945713D-03 -0.00000000D+00 -0.00000000D+00 -0.00000000D+00  0.37909061D-08
  0.66261910D-08  0.00000000D+00 -0.00000000D+00 -0.00000000D+00 -0.00000000D+00
 -0.53817087D-07 -0.94067809D-07 -0.00000000D+00
MO    5     MO 0.0        OCC NO =    0.0000000  ORB. ENERGY =    0.008761
 -0.00000000D+00 -0.00000000D+00  0.00000000D+00  0.00000000D+00 -0.00000000D+00
  0.00000000D+00 -0.00000000D+00  0.00000000D+00  0.00000000D+00 -0.00000000D+00
  0.00000000D+00  0.42962285D-06 -0.24579131D-06 -0.00000000D+00 -0.47776176D-05
  0.27333204D-05  0.00000000D+00  0.62541075D-04 -0.35780347D-04  0.00000000D+00
  0.30945713D-03 -0.17704339D-03  0.00000000D+00 -0.00000000D+00 -0.00000000D+00
 -0.66261910D-08  0.37909061D-08 -0.00000000D+00 -0.00000000D+00 -0.00000000D+00
 -0.00000000D+00  0.94067809D-07 -0.53817087D-07 -0.00000000D+00 -0.00000000D+00
  0.00000000D+00 -0.00000000D+00  0.00000000D+00 -0.00000000D+00 -0.00000000D+00
 -0.00000000D+00  0.00000000D+00 -0.00000000D+00  0.00000000D+00 -0.00000000D+00
  0.42962285D-06 -0.24579131D-06 -0.00000000D+00 -0.47776176D-05  0.27333204D-05
  0.00000000D+00  0.62541075D-04 -0.35780347D-04 -0.00000000D+00  0.30945713D-03
 -0.17704339D-03  0.00000000D+00  0.00000000D+00  0.00000000D+00  0.66261910D-08
 -0.37909061D-08  0.00000000D+00  0.00000000D+00  0.00000000D+00  0.00000000D+00
 -0.94067809D-07  0.53817087D-07  0.00000000D+00
MO    6     MO 0.0        OCC NO =    0.0000000  ORB. ENERGY =    0.010370
  0.97261804D-04 -0.21969896D-01  0.59329069D-02  0.20724145D-02 -0.10913548D-01
 -0.22099276D-02 -0.84959591D-02  0.13429352D-01  0.12707143D-02  0.21358494D-03
  0.14480760D-05 -0.00000000D+00  0.00000000D+00 -0.31845701D-03  0.00000000D+00
  0.00000000D+00  0.13615354D-03 -0.00000000D+00  0.00000000D+00  0.38037321D-03
  0.00000000D+00  0.00000000D+00  0.13962164D-07  0.10016066D-07  0.10016066D-07
 -0.00000000D+00  0.00000000D+00  0.00000000D+00 -0.13150887D-05  0.11738625D-06
  0.11738625D-06  0.00000000D+00  0.00000000D+00 -0.00000000D+00 -0.97261804D-04
  0.21969896D-01 -0.59329069D-02 -0.20724145D-02  0.10913548D-01  0.22099276D-02
  0.84959591D-02 -0.13429352D-01 -0.12707143D-02 -0.21358494D-03  0.14480760D-05
  0.00000000D+00 -0.00000000D+00 -0.31845701D-03 -0.00000000D+00  0.00000000D+00
  0.13615354D-03  0.00000000D+00 -0.00000000D+00  0.38037321D-03 -0.00000000D+00
  0.00000000D+00 -0.13962164D-07 -0.10016066D-07 -0.10016066D-07 -0.00000000D+00
  0.00000000D+00 -0.00000000D+00  0.13150887D-05 -0.11738625D-06 -0.11738625D-06
  0.00000000D+00  0.00000000D+00  0.00000000D+00
MO    7     MO 0.0        OCC NO =    0.0000000  ORB. ENERGY =    0.010829
  0.21268015D-03 -0.43670650D-03 -0.21241122D-02  0.11804792D-01 -0.14396132D-01
  0.22914624D-02 -0.85855020D-02  0.11185696D-01 -0.25084467D-04  0.52975792D-03
 -0.17295888D-04 -0.00000000D+00 -0.00000000D+00  0.18475958D-04 -0.00000000D+00
  0.00000000D+00 -0.14589820D-03 -0.00000000D+00 -0.00000000D+00  0.69364642D-03
  0.00000000D+00  0.00000000D+00 -0.71524249D-07  0.56369613D-08  0.56369613D-08
 -0.00000000D+00 -0.00000000D+00  0.00000000D+00  0.23284843D-06  0.13015602D-06
  0.13015602D-06 -0.00000000D+00  0.00000000D+00 -0.00000000D+00  0.21268015D-03
 -0.43670650D-03 -0.21241122D-02  0.11804792D-01 -0.14396132D-01  0.22914624D-02
 -0.85855020D-02  0.11185696D-01 -0.25084467D-04  0.52975792D-03  0.17295888D-04
  0.00000000D+00  0.00000000D+00 -0.18475958D-04  0.00000000D+00 -0.00000000D+00
  0.14589820D-03  0.00000000D+00  0.00000000D+00 -0.69364642D-03 -0.00000000D+00
 -0.00000000D+00 -0.71524249D-07  0.56369613D-08  0.56369613D-08 -0.00000000D+00
 -0.00000000D+00 -0.00000000D+00  0.23284843D-06  0.13015602D-06  0.13015602D-06
 -0.00000000D+00  0.00000000D+00  0.00000000D+00
MO    8     MO 0.0        OCC NO =    0.0000000  ORB. ENERGY =    0.010974
 -0.00000000D+00  0.00000000D+00 -0.00000000D+00  0.00000000D+00 -0.00000000D+00
 -0.00000000D+00 -0.00000000D+00  0.00000000D+00 -0.00000000D+00  0.00000000D+00
  0.00000000D+00 -0.25153243D-06  0.19655351D-05  0.00000000D+00  0.75467519D-06
 -0.58972115D-05 -0.00000000D+00 -0.37699935D-06  0.29459686D-05  0.00000000D+00
  0.82394120D-04 -0.64384743D-03  0.00000000D+00  0.00000000D+00  0.00000000D+00
 -0.12308566D-08  0.96182169D-08  0.00000000D+00  0.00000000D+00  0.00000000D+00
  0.00000000D+00  0.11139363D-07 -0.87045622D-07 -0.00000000D+00  0.00000000D+00
 -0.00000000D+00 -0.00000000D+00  0.00000000D+00  0.00000000D+00  0.00000000D+00
  0.00000000D+00 -0.00000000D+00  0.00000000D+00 -0.00000000D+00 -0.00000000D+00
  0.25153243D-06 -0.19655351D-05  0.00000000D+00 -0.75467519D-06  0.58972115D-05
 -0.00000000D+00  0.37699935D-06 -0.29459686D-05  0.00000000D+00 -0.82394120D-04
  0.64384743D-03  0.00000000D+00 -0.00000000D+00 -0.00000000D+00 -0.12308566D-08
  0.96182169D-08 -0.00000000D+00 -0.00000000D+00 -0.00000000D+00 -0.00000000D+00
  0.11139363D-07 -0.87045622D-07  0.00000000D+00
MO    9     MO 0.0        OCC NO =    0.0000000  ORB. ENERGY =    0.010974
 -0.00000000D+00  0.00000000D+00 -0.00000000D+00  0.00000000D+00 -0.00000000D+00
 -0.00000000D+00 -0.00000000D+00  0.00000000D+00  0.00000000D+00 -0.00000000D+00
 -0.00000000D+00  0.19655351D-05  0.25153243D-06  0.00000000D+00 -0.58972115D-05
 -0.75467519D-06 -0.00000000D+00  0.29459686D-05  0.37699935D-06  0.00000000D+00
 -0.64384743D-03 -0.82394120D-04 -0.00000000D+00  0.00000000D+00  0.00000000D+00
  0.96182169D-08  0.12308566D-08 -0.00000000D+00  0.00000000D+00  0.00000000D+00
  0.00000000D+00 -0.87045622D-07 -0.11139363D-07  0.00000000D+00  0.00000000D+00
 -0.00000000D+00  0.00000000D+00  0.00000000D+00  0.00000000D+00  0.00000000D+00
  0.00000000D+00 -0.00000000D+00  0.00000000D+00 -0.00000000D+00  0.00000000D+00
 -0.19655351D-05 -0.25153243D-06  0.00000000D+00  0.58972115D-05  0.75467519D-06
 -0.00000000D+00 -0.29459686D-05 -0.37699935D-06 -0.00000000D+00  0.64384743D-03
  0.82394120D-04 -0.00000000D+00 -0.00000000D+00 -0.00000000D+00  0.96182169D-08
  0.12308566D-08  0.00000000D+00 -0.00000000D+00 -0.00000000D+00 -0.00000000D+00
 -0.87045622D-07 -0.11139363D-07 -0.00000000D+00
MO   10     MO 0.0        OCC NO =    0.0000000  ORB. ENERGY =    0.015756
  0.00000000D+00 -0.00000000D+00  0.00000000D+00 -0.00000000D+00  0.00000000D+00
 -0.00000000D+00  0.00000000D+00 -0.00000000D+00  0.00000000D+00 -0.00000000D+00
  0.00000000D+00  0.81029666D-06 -0.73816146D-06 -0.00000000D+00 -0.97856441D-05
  0.89144940D-05  0.00000000D+00  0.16061909D-03 -0.14632026D-03 -0.00000000D+00
 -0.61729302D-03  0.56233958D-03  0.00000000D+00 -0.00000000D+00 -0.00000000D+00
 -0.91799971D-08  0.83627634D-08 -0.00000000D+00 -0.00000000D+00 -0.00000000D+00
 -0.00000000D+00  0.15070208D-06 -0.13728608D-06  0.00000000D+00 -0.00000000D+00
  0.00000000D+00 -0.00000000D+00  0.00000000D+00 -0.00000000D+00  0.00000000D+00
 -0.00000000D+00  0.00000000D+00 -0.00000000D+00  0.00000000D+00 -0.00000000D+00
  0.81029666D-06 -0.73816146D-06 -0.00000000D+00 -0.97856441D-05  0.89144940D-05
  0.00000000D+00  0.16061909D-03 -0.14632026D-03 -0.00000000D+00 -0.61729302D-03
  0.56233958D-03  0.00000000D+00  0.00000000D+00  0.00000000D+00  0.91799971D-08
 -0.83627634D-08 -0.00000000D+00  0.00000000D+00  0.00000000D+00  0.00000000D+00
 -0.15070208D-06  0.13728608D-06  0.00000000D+00
MO   11     MO 0.0        OCC NO =    0.0000000  ORB. ENERGY =    0.015756
  0.00000000D+00  0.00000000D+00 -0.00000000D+00  0.00000000D+00 -0.00000000D+00
  0.00000000D+00 -0.00000000D+00  0.00000000D+00 -0.00000000D+00  0.00000000D+00
 -0.00000000D+00  0.73816146D-06  0.81029666D-06  0.00000000D+00 -0.89144940D-05
 -0.97856441D-05 -0.00000000D+00  0.14632026D-03  0.16061909D-03  0.00000000D+00
 -0.56233958D-03 -0.61729302D-03 -0.00000000D+00  0.00000000D+00  0.00000000D+00
 -0.83627634D-08 -0.91799971D-08 -0.00000000D+00  0.00000000D+00  0.00000000D+00
  0.00000000D+00  0.13728608D-06  0.15070208D-06 -0.00000000D+00  0.00000000D+00
 -0.00000000D+00  0.00000000D+00 -0.00000000D+00  0.00000000D+00 -0.00000000D+00
  0.00000000D+00 -0.00000000D+00 -0.00000000D+00  0.00000000D+00  0.00000000D+00
  0.73816146D-06  0.81029666D-06  0.00000000D+00 -0.89144940D-05 -0.97856441D-05
 -0.00000000D+00  0.14632026D-03  0.16061909D-03  0.00000000D+00 -0.56233958D-03
 -0.61729302D-03 -0.00000000D+00 -0.00000000D+00 -0.00000000D+00  0.83627634D-08
  0.91799971D-08  0.00000000D+00 -0.00000000D+00 -0.00000000D+00 -0.00000000D+00
 -0.13728608D-06 -0.15070208D-06 -0.00000000D+00
MO   12     MO 0.0        OCC NO =    0.0000000  ORB. ENERGY =    0.016440
  0.21171806D-03 -0.39766022D-01  0.90323171D-02 -0.10594791D-01  0.82524951D-02
 -0.22471112D-02  0.36538436D-02 -0.41075585D-02  0.35031487D-03 -0.30576258D-03
 -0.11042373D-06 -0.00000000D+00  0.00000000D+00 -0.58954082D-03  0.00000000D+00
  0.00000000D+00  0.32555640D-03 -0.00000000D+00  0.00000000D+00 -0.73943522D-03
  0.00000000D+00 -0.00000000D+00 -0.71958312D-08 -0.73474174D-08 -0.73474174D-08
 -0.00000000D+00  0.00000000D+00 -0.00000000D+00 -0.28107361D-05 -0.19396586D-06
 -0.19396586D-06  0.00000000D+00  0.00000000D+00  0.00000000D+00 -0.21171806D-03
  0.39766022D-01 -0.90323171D-02  0.10594791D-01 -0.82524951D-02  0.22471112D-02
 -0.36538436D-02  0.41075585D-02 -0.35031487D-03  0.30576258D-03 -0.11042373D-06
  0.00000000D+00  0.00000000D+00 -0.58954082D-03 -0.00000000D+00 -0.00000000D+00
  0.32555640D-03 -0.00000000D+00  0.00000000D+00 -0.73943522D-03  0.00000000D+00
 -0.00000000D+00  0.71958312D-08  0.73474174D-08  0.73474174D-08 -0.00000000D+00
 -0.00000000D+00  0.00000000D+00  0.28107361D-05  0.19396586D-06  0.19396586D-06
  0.00000000D+00  0.00000000D+00 -0.00000000D+00
MO   13     MO 0.0        OCC NO =    0.0000000  ORB. ENERGY =    0.017796
  0.11604342D-03  0.23364074D-04 -0.79496924D-03  0.10182959D-01 -0.14263946D-01
 -0.96199154D-03 -0.77705670D-02  0.11703415D-01  0.89031674D-03  0.26156279D-03
 -0.51507837D-05 -0.00000000D+00 -0.00000000D+00  0.24582243D-05  0.00000000D+00
  0.00000000D+00 -0.39446437D-04 -0.00000000D+00 -0.00000000D+00 -0.26875316D-03
  0.00000000D+00 -0.00000000D+00 -0.22499287D-07 -0.30600503D-09 -0.30600503D-09
 -0.00000000D+00 -0.00000000D+00 -0.00000000D+00 -0.16896539D-07  0.39711494D-08
  0.39711494D-08  0.00000000D+00  0.00000000D+00  0.00000000D+00  0.11604342D-03
  0.23364074D-04 -0.79496924D-03  0.10182959D-01 -0.14263946D-01 -0.96199154D-03
 -0.77705670D-02  0.11703415D-01  0.89031674D-03  0.26156279D-03  0.51507837D-05
  0.00000000D+00  0.00000000D+00 -0.24582243D-05 -0.00000000D+00 -0.00000000D+00
  0.39446437D-04  0.00000000D+00  0.00000000D+00  0.26875316D-03 -0.00000000D+00
 -0.00000000D+00 -0.22499287D-07 -0.30600503D-09 -0.30600503D-09 -0.00000000D+00
 -0.00000000D+00  0.00000000D+00 -0.16896539D-07  0.39711494D-08  0.39711494D-08
  0.00000000D+00  0.00000000D+00 -0.00000000D+00
MO   14     MO 0.0        OCC NO =    0.0000000  ORB. ENERGY =    0.020284
 -0.13446893D-03  0.27492872D-01 -0.10697292D-01  0.18811956D-01 -0.18649764D-01
 -0.26334896D-03 -0.88995299D-02  0.12960793D-01  0.79008278D-03  0.35478266D-03
 -0.88054433D-06  0.00000000D+00  0.00000000D+00  0.40430020D-03 -0.00000000D+00
 -0.00000000D+00 -0.30062145D-03  0.00000000D+00 -0.00000000D+00 -0.19907883D-03
 -0.00000000D+00  0.00000000D+00 -0.44107784D-08 -0.51622541D-08 -0.51622541D-08
  0.00000000D+00  0.00000000D+00 -0.00000000D+00  0.17875394D-05  0.22499864D-07
  0.22499864D-07 -0.00000000D+00 -0.00000000D+00  0.00000000D+00  0.13446893D-03
 -0.27492872D-01  0.10697292D-01 -0.18811956D-01  0.18649764D-01  0.26334896D-03
  0.88995299D-02 -0.12960793D-01 -0.79008278D-03 -0.35478266D-03 -0.88054433D-06
 -0.00000000D+00 -0.00000000D+00  0.40430020D-03  0.00000000D+00  0.00000000D+00
 -0.30062145D-03 -0.00000000D+00 -0.00000000D+00 -0.19907883D-03  0.00000000D+00
  0.00000000D+00  0.44107784D-08  0.51622541D-08  0.51622541D-08  0.00000000D+00
  0.00000000D+00  0.00000000D+00 -0.17875394D-05 -0.22499864D-07 -0.22499864D-07
 -0.00000000D+00 -0.00000000D+00 -0.00000000D+00
MO   15     MO 0.0        OCC NO =    0.0000000  ORB. ENERGY =    0.022321
 -0.00000000D+00  0.00000000D+00  0.00000000D+00 -0.00000000D+00  0.00000000D+00
  0.00000000D+00  0.00000000D+00 -0.00000000D+00 -0.00000000D+00  0.00000000D+00
  0.00000000D+00  0.61581329D-04 -0.93300246D-05  0.00000000D+00 -0.56971273D-04
  0.86315673D-05 -0.00000000D+00  0.35152318D-03 -0.53258350D-04 -0.00000000D+00
 -0.69300557D-03  0.10499544D-03  0.00000000D+00  0.00000000D+00  0.00000000D+00
  0.26329501D-06 -0.39891132D-07  0.00000000D+00  0.00000000D+00  0.00000000D+00
  0.00000000D+00 -0.32837911D-06  0.49751847D-07 -0.00000000D+00  0.00000000D+00
 -0.00000000D+00  0.00000000D+00  0.00000000D+00 -0.00000000D+00  0.00000000D+00
 -0.00000000D+00  0.00000000D+00  0.00000000D+00 -0.00000000D+00 -0.00000000D+00
 -0.61581329D-04  0.93300246D-05  0.00000000D+00  0.56971273D-04 -0.86315673D-05
 -0.00000000D+00 -0.35152318D-03  0.53258350D-04  0.00000000D+00  0.69300557D-03
 -0.10499544D-03  0.00000000D+00 -0.00000000D+00 -0.00000000D+00  0.26329501D-06
 -0.39891132D-07 -0.00000000D+00 -0.00000000D+00 -0.00000000D+00 -0.00000000D+00
 -0.32837911D-06  0.49751847D-07  0.00000000D+00
MO   16     MO 0.0        OCC NO =    0.0000000  ORB. ENERGY =    0.022321
  0.00000000D+00  0.00000000D+00  0.00000000D+00 -0.00000000D+00  0.00000000D+00
 -0.00000000D+00  0.00000000D+00 -0.00000000D+00  0.00000000D+00 -0.00000000D+00
 -0.00000000D+00 -0.93300246D-05 -0.61581329D-04  0.00000000D+00  0.86315673D-05
  0.56971273D-04 -0.00000000D+00 -0.53258350D-04 -0.35152318D-03  0.00000000D+00
  0.10499544D-03  0.69300557D-03 -0.00000000D+00  0.00000000D+00  0.00000000D+00
 -0.39891132D-07 -0.26329501D-06 -0.00000000D+00  0.00000000D+00  0.00000000D+00
  0.00000000D+00  0.49751847D-07  0.32837911D-06 -0.00000000D+00 -0.00000000D+00
 -0.00000000D+00  0.00000000D+00 -0.00000000D+00  0.00000000D+00 -0.00000000D+00
  0.00000000D+00 -0.00000000D+00 -0.00000000D+00  0.00000000D+00  0.00000000D+00
  0.93300246D-05  0.61581329D-04  0.00000000D+00 -0.86315673D-05 -0.56971273D-04
 -0.00000000D+00  0.53258350D-04  0.35152318D-03 -0.00000000D+00 -0.10499544D-03
 -0.69300557D-03 -0.00000000D+00 -0.00000000D+00 -0.00000000D+00 -0.39891132D-07
 -0.26329501D-06  0.00000000D+00 -0.00000000D+00 -0.00000000D+00 -0.00000000D+00
  0.49751847D-07  0.32837911D-06  0.00000000D+00
MO   17     MO 0.0        OCC NO =    0.0000000  ORB. ENERGY =    0.028023
 -0.58382684D-03  0.18657872D-02 -0.66760369D-02  0.11009427D-01 -0.87375015D-02
 -0.17712893D-02 -0.32376150D-02  0.55352347D-02  0.73864612D-03  0.25333159D-04
  0.40146411D-04  0.00000000D+00  0.00000000D+00 -0.41807705D-04 -0.00000000D+00
 -0.00000000D+00  0.24408112D-03  0.00000000D+00  0.00000000D+00 -0.55733749D-03
  0.00000000D+00  0.00000000D+00  0.17163481D-06 -0.99907776D-08 -0.99907776D-08
  0.00000000D+00  0.00000000D+00  0.00000000D+00 -0.61720113D-06 -0.32802046D-06
 -0.32802046D-06 -0.00000000D+00 -0.00000000D+00 -0.00000000D+00 -0.58382684D-03
  0.18657872D-02 -0.66760369D-02  0.11009427D-01 -0.87375015D-02 -0.17712893D-02
 -0.32376150D-02  0.55352347D-02  0.73864612D-03  0.25333159D-04 -0.40146411D-04
 -0.00000000D+00 -0.00000000D+00  0.41807705D-04  0.00000000D+00  0.00000000D+00
 -0.24408112D-03 -0.00000000D+00  0.00000000D+00  0.55733749D-03 -0.00000000D+00
 -0.00000000D+00  0.17163481D-06 -0.99907776D-08 -0.99907776D-08  0.00000000D+00
  0.00000000D+00 -0.00000000D+00 -0.61720113D-06 -0.32802046D-06 -0.32802046D-06
 -0.00000000D+00 -0.00000000D+00  0.00000000D+00
MO   18     MO 0.0        OCC NO =    0.0000000  ORB. ENERGY =    0.029551
 -0.33997159D-03  0.54154609D-01 -0.99553353D-03 -0.52288147D-02  0.48550856D-02
  0.41106497D-03  0.18607504D-02 -0.28522320D-02 -0.24252128D-03 -0.57807923D-04
  0.41121248D-05  0.00000000D+00 -0.00000000D+00  0.83228657D-03 -0.00000000D+00
 -0.00000000D+00 -0.56556000D-03  0.00000000D+00  0.00000000D+00  0.61352772D-03
 -0.00000000D+00  0.00000000D+00  0.57095303D-07  0.47651186D-07  0.47651186D-07
  0.00000000D+00 -0.00000000D+00 -0.00000000D+00  0.45746236D-05  0.91306739D-06
  0.91306739D-06 -0.00000000D+00 -0.00000000D+00 -0.00000000D+00  0.33997159D-03
 -0.54154609D-01  0.99553353D-03  0.52288147D-02 -0.48550856D-02 -0.41106497D-03
 -0.18607504D-02  0.28522320D-02  0.24252128D-03  0.57807923D-04  0.41121248D-05
 -0.00000000D+00  0.00000000D+00  0.83228657D-03  0.00000000D+00  0.00000000D+00
 -0.56556000D-03 -0.00000000D+00 -0.00000000D+00  0.61352772D-03  0.00000000D+00
  0.00000000D+00 -0.57095303D-07 -0.47651186D-07 -0.47651186D-07  0.00000000D+00
 -0.00000000D+00 -0.00000000D+00 -0.45746236D-05 -0.91306739D-06 -0.91306739D-06
 -0.00000000D+00 -0.00000000D+00  0.00000000D+00
MO   19     MO 0.0        OCC NO =    0.0000000  ORB. ENERGY =    0.030482
  0.39326282D-02  0.39165207D-02 -0.17646209D-01  0.17573311D-01 -0.92249801D-02
 -0.42350784D-02 -0.24909281D-02  0.57348695D-02  0.13728290D-02 -0.16769154D-03
 -0.58126617D-04 -0.00000000D+00 -0.00000000D+00  0.10334838D-03  0.00000000D+00
  0.00000000D+00 -0.12394020D-03 -0.00000000D+00 -0.00000000D+00  0.32404070D-03
  0.00000000D+00  0.00000000D+00 -0.35790390D-06 -0.91096422D-07 -0.91096422D-07
 -0.00000000D+00 -0.00000000D+00 -0.00000000D+00 -0.85852924D-06 -0.19153479D-05
 -0.19153479D-05  0.00000000D+00  0.00000000D+00  0.00000000D+00  0.39326282D-02
  0.39165207D-02 -0.17646209D-01  0.17573311D-01 -0.92249801D-02 -0.42350784D-02
 -0.24909281D-02  0.57348695D-02  0.13728290D-02 -0.16769154D-03  0.58126617D-04
  0.00000000D+00  0.00000000D+00 -0.10334838D-03 -0.00000000D+00 -0.00000000D+00
  0.12394020D-03  0.00000000D+00  0.00000000D+00 -0.32404070D-03 -0.00000000D+00
 -0.00000000D+00 -0.35790390D-06 -0.91096422D-07 -0.91096422D-07 -0.00000000D+00
 -0.00000000D+00  0.00000000D+00 -0.85852924D-06 -0.19153479D-05 -0.19153479D-05
  0.00000000D+00  0.00000000D+00 -0.00000000D+00
MO   20     MO 0.0        OCC NO =    0.0000000  ORB. ENERGY =    0.039000
 -0.29119277D-03 -0.50205018D-01  0.17396815D-01 -0.11549028D-01  0.12062864D-02
  0.10450864D-01 -0.92394383D-03 -0.36930861D-02 -0.25396620D-02  0.63144586D-03
  0.42322459D-04 -0.00000000D+00  0.00000000D+00 -0.70847838D-03  0.00000000D+00
  0.00000000D+00 -0.11928954D-03 -0.00000000D+00  0.00000000D+00  0.14969712D-03
  0.00000000D+00 -0.00000000D+00  0.60554700D-06  0.53509865D-06  0.53509865D-06
 -0.00000000D+00  0.00000000D+00 -0.00000000D+00  0.77648763D-06  0.40315394D-05
  0.40315394D-05  0.00000000D+00  0.00000000D+00 -0.00000000D+00  0.29119277D-03
  0.50205018D-01 -0.17396815D-01  0.11549028D-01 -0.12062864D-02 -0.10450864D-01
  0.92394383D-03  0.36930861D-02  0.25396620D-02 -0.63144586D-03  0.42322459D-04
  0.00000000D+00 -0.00000000D+00 -0.70847838D-03 -0.00000000D+00 -0.00000000D+00
 -0.11928954D-03  0.00000000D+00  0.00000000D+00  0.14969712D-03 -0.00000000D+00
 -0.00000000D+00 -0.60554700D-06 -0.53509865D-06 -0.53509865D-06 -0.00000000D+00
  0.00000000D+00  0.00000000D+00 -0.77648763D-06 -0.40315394D-05 -0.40315394D-05
  0.00000000D+00  0.00000000D+00 -0.00000000D+00
MO   21     MO 0.0        OCC NO =    0.0000000  ORB. ENERGY =    0.040981
 -0.00000000D+00  0.00000000D+00 -0.00000000D+00  0.00000000D+00  0.00000000D+00
 -0.00000000D+00  0.00000000D+00  0.00000000D+00  0.00000000D+00 -0.00000000D+00
  0.00000000D+00  0.00000000D+00  0.00000000D+00  0.00000000D+00 -0.00000000D+00
 -0.00000000D+00 -0.00000000D+00 -0.00000000D+00  0.00000000D+00  0.00000000D+00
  0.00000000D+00 -0.00000000D+00  0.00000000D+00  0.71536495D-08 -0.71536495D-08
  0.00000000D+00  0.00000000D+00 -0.98868652D-07  0.00000000D+00 -0.94461148D-07
  0.94461148D-07 -0.00000000D+00 -0.00000000D+00  0.13055220D-05  0.00000000D+00
 -0.00000000D+00  0.00000000D+00 -0.00000000D+00 -0.00000000D+00  0.00000000D+00
 -0.00000000D+00 -0.00000000D+00 -0.00000000D+00  0.00000000D+00 -0.00000000D+00
 -0.00000000D+00 -0.00000000D+00  0.00000000D+00  0.00000000D+00  0.00000000D+00
 -0.00000000D+00 -0.00000000D+00 -0.00000000D+00  0.00000000D+00  0.00000000D+00
  0.00000000D+00 -0.00000000D+00  0.71536495D-08 -0.71536495D-08  0.00000000D+00
  0.00000000D+00 -0.98868652D-07 -0.00000000D+00 -0.94461148D-07  0.94461148D-07
 -0.00000000D+00 -0.00000000D+00  0.13055220D-05
MO   22     MO 0.0        OCC NO =    0.0000000  ORB. ENERGY =    0.040981
  0.00000000D+00  0.00000000D+00 -0.00000000D+00  0.00000000D+00  0.00000000D+00
 -0.00000000D+00  0.00000000D+00  0.00000000D+00  0.00000000D+00 -0.00000000D+00
 -0.00000000D+00  0.00000000D+00  0.00000000D+00  0.00000000D+00 -0.00000000D+00
 -0.00000000D+00 -0.00000000D+00  0.00000000D+00  0.00000000D+00  0.00000000D+00
 -0.00000000D+00 -0.00000000D+00 -0.00000000D+00 -0.49434326D-07  0.49434326D-07
  0.00000000D+00  0.00000000D+00 -0.14307300D-07  0.00000000D+00  0.65276099D-06
 -0.65276099D-06 -0.00000000D+00 -0.00000000D+00  0.18892230D-06  0.00000000D+00
 -0.00000000D+00  0.00000000D+00 -0.00000000D+00 -0.00000000D+00  0.00000000D+00
 -0.00000000D+00 -0.00000000D+00 -0.00000000D+00  0.00000000D+00  0.00000000D+00
 -0.00000000D+00 -0.00000000D+00  0.00000000D+00  0.00000000D+00  0.00000000D+00
 -0.00000000D+00 -0.00000000D+00  0.00000000D+00 -0.00000000D+00  0.00000000D+00
 -0.00000000D+00 -0.00000000D+00 -0.49434326D-07  0.49434326D-07  0.00000000D+00
  0.00000000D+00 -0.14307300D-07 -0.00000000D+00  0.65276099D-06 -0.65276099D-06
 -0.00000000D+00 -0.00000000D+00  0.18892230D-06
MO   23     MO 0.0        OCC NO =    0.0000000  ORB. ENERGY =    0.042294
  0.97887922D-03 -0.13643197D+00  0.78363340D-02 -0.55782222D-02 -0.28488129D-02
  0.12138077D-01 -0.22080650D-02 -0.25647083D-02 -0.27676979D-02  0.75535213D-03
 -0.19531212D-04 -0.00000000D+00 -0.00000000D+00 -0.18582004D-02  0.00000000D+00
  0.00000000D+00 -0.30858362D-04 -0.00000000D+00  0.00000000D+00  0.95345021D-04
  0.00000000D+00 -0.00000000D+00 -0.39388055D-06 -0.44880513D-06 -0.44880513D-06
 -0.00000000D+00 -0.00000000D+00 -0.00000000D+00 -0.92167912D-05 -0.32006309D-06
 -0.32006309D-06  0.00000000D+00  0.00000000D+00  0.00000000D+00 -0.97887922D-03
  0.13643197D+00 -0.78363340D-02  0.55782222D-02  0.28488129D-02 -0.12138077D-01
  0.22080650D-02  0.25647083D-02  0.27676979D-02 -0.75535213D-03 -0.19531212D-04
  0.00000000D+00  0.00000000D+00 -0.18582004D-02 -0.00000000D+00 -0.00000000D+00
 -0.30858362D-04  0.00000000D+00  0.00000000D+00  0.95345021D-04 -0.00000000D+00
 -0.00000000D+00  0.39388055D-06  0.44880513D-06  0.44880513D-06 -0.00000000D+00
 -0.00000000D+00 -0.00000000D+00  0.92167912D-05  0.32006309D-06  0.32006309D-06
  0.00000000D+00  0.00000000D+00  0.00000000D+00
MO   24     MO 0.0        OCC NO =    0.0000000  ORB. ENERGY =    0.043064
 -0.87748283D-02  0.34816306D-02  0.16455343D-02 -0.44121694D-05  0.10399168D-02
 -0.26377493D-02  0.57455444D-03  0.41908797D-03  0.59113199D-03 -0.16739545D-03
  0.20696005D-03  0.00000000D+00  0.00000000D+00 -0.69556870D-04 -0.00000000D+00
 -0.00000000D+00  0.56794789D-04  0.00000000D+00  0.00000000D+00 -0.57283828D-04
 -0.00000000D+00 -0.00000000D+00  0.11810764D-05  0.17771147D-06  0.17771147D-06
  0.00000000D+00  0.00000000D+00  0.00000000D+00  0.53094414D-06  0.12870180D-05
  0.12870180D-05 -0.00000000D+00 -0.00000000D+00 -0.00000000D+00 -0.87748283D-02
  0.34816305D-02  0.16455343D-02 -0.44121694D-05  0.10399168D-02 -0.26377493D-02
  0.57455444D-03  0.41908797D-03  0.59113199D-03 -0.16739545D-03 -0.20696005D-03
 -0.00000000D+00 -0.00000000D+00  0.69556870D-04  0.00000000D+00  0.00000000D+00