 Molden2AIM, Version 3.1.0 (02/25/2015)           Time: Thu Oct 17 19:54:44 2024
GAUSSIAN             68 MOL ORBITALS     68 PRIMITIVES        2 NUCLEI
  Be   1    (CENTRE  1)   0.00000000  0.00000000  0.00000000  CHARGE =  4.0
  Be   2    (CENTRE  2)  36.60000000  0.00000000  0.00000000  CHARGE =  4.0
CENTRE ASSIGNMENTS    1  1  1  1  1  1  1  1  1  1  1  1  1  1  1  1  1  1  1  1
CENTRE ASSIGNMENTS    1  1  1  1  1  1  1  1  1  1  1  1  1  1  2  2  2  2  2  2
CENTRE ASSIGNMENTS    2  2  2  2  2  2  2  2  2  2  2  2  2  2  2  2  2  2  2  2
CENTRE ASSIGNMENTS    2  2  2  2  2  2  2  2
TYPE ASSIGNMENTS      1  1  1  1  1  1  1  1  1  1  2  3  4  2  3  4  2  3  4  2
TYPE ASSIGNMENTS      3  4  5  6  7  8  9 10  5  6  7  8  9 10  1  1  1  1  1  1
TYPE ASSIGNMENTS      1  1  1  1  2  3  4  2  3  4  2  3  4  2  3  4  5  6  7  8
TYPE ASSIGNMENTS      9 10  5  6  7  8  9 10
EXPONENTS  0.1000000D-03 0.3000000D-03 0.9000000D-03 0.2700000D-02 0.8100000D-02
EXPONENTS  0.2430000D-01 0.7290000D-01 0.2187000D+00 0.6561000D+00 0.1968300D+01
EXPONENTS  0.1000000D-03 0.1000000D-03 0.1000000D-03 0.3000000D-03 0.3000000D-03
EXPONENTS  0.3000000D-03 0.9000000D-03 0.9000000D-03 0.9000000D-03 0.2700000D-02
EXPONENTS  0.2700000D-02 0.2700000D-02 0.1000000D-03 0.1000000D-03 0.1000000D-03
EXPONENTS  0.1000000D-03 0.1000000D-03 0.1000000D-03 0.3000000D-03 0.3000000D-03
EXPONENTS  0.3000000D-03 0.3000000D-03 0.3000000D-03 0.3000000D-03 0.1000000D-03
EXPONENTS  0.3000000D-03 0.9000000D-03 0.2700000D-02 0.8100000D-02 0.2430000D-01
EXPONENTS  0.7290000D-01 0.2187000D+00 0.6561000D+00 0.1968300D+01 0.1000000D-03
EXPONENTS  0.1000000D-03 0.1000000D-03 0.3000000D-03 0.3000000D-03 0.3000000D-03
EXPONENTS  0.9000000D-03 0.9000000D-03 0.9000000D-03 0.2700000D-02 0.2700000D-02
EXPONENTS  0.2700000D-02 0.1000000D-03 0.1000000D-03 0.1000000D-03 0.1000000D-03
EXPONENTS  0.1000000D-03 0.1000000D-03 0.3000000D-03 0.3000000D-03 0.3000000D-03
EXPONENTS  0.3000000D-03 0.3000000D-03 0.3000000D-03
MO    1     MO 0.0        OCC NO =    1.0000000  ORB. ENERGY =   -0.003895
 -0.37696026D-04  0.69565440D-04  0.29288793D-04  0.17446731D-02  0.56405016D-02
  0.85855344D-02  0.12173482D-01 -0.22411329D-01 -0.34875359D-02  0.10958753D-03
  0.24805299D-05 -0.00000000D+00  0.00000000D+00 -0.33332238D-05  0.00000000D+00
 -0.00000000D+00  0.92330856D-05 -0.00000000D+00  0.00000000D+00  0.78463969D-05
 -0.00000000D+00 -0.00000000D+00  0.90394013D-08 -0.26957582D-09 -0.26957582D-09
 -0.00000000D+00  0.00000000D+00 -0.00000000D+00 -0.36208716D-07 -0.75785942D-08
 -0.75785942D-08  0.00000000D+00 -0.00000000D+00  0.00000000D+00 -0.37696026D-04
  0.69565440D-04  0.29288793D-04  0.17446731D-02  0.56405016D-02  0.85855344D-02
  0.12173482D-01 -0.22411329D-01 -0.34875359D-02  0.10958753D-03 -0.24805299D-05
  0.00000000D+00 -0.00000000D+00  0.33332238D-05 -0.00000000D+00  0.00000000D+00
 -0.92330856D-05  0.00000000D+00 -0.00000000D+00 -0.78463969D-05 -0.00000000D+00
  0.00000000D+00  0.90394013D-08 -0.26957582D-09 -0.26957582D-09 -0.00000000D+00
  0.00000000D+00  0.00000000D+00 -0.36208716D-07 -0.75785942D-08 -0.75785942D-08
  0.00000000D+00 -0.00000000D+00 -0.00000000D+00
MO    2     MO 0.0        OCC NO =    0.0000000  ORB. ENERGY =   -0.003527
 -0.87572259D-06 -0.88110136D-05 -0.67974850D-04 -0.23258021D-02 -0.54485741D-02
 -0.93929557D-02 -0.12387525D-01  0.23165739D-01  0.37568042D-02 -0.16240935D-03
  0.81566718D-07 -0.00000000D+00  0.00000000D+00  0.70816279D-06  0.00000000D+00
 -0.00000000D+00 -0.93829859D-05 -0.00000000D+00 -0.00000000D+00 -0.30483502D-04
  0.00000000D+00  0.00000000D+00  0.14605392D-08  0.56521647D-09  0.56521647D-09
 -0.00000000D+00  0.00000000D+00 -0.00000000D+00  0.17100020D-07  0.23094310D-07
  0.23094310D-07  0.00000000D+00 -0.00000000D+00  0.00000000D+00  0.87572259D-06
  0.88110136D-05  0.67974850D-04  0.23258021D-02  0.54485741D-02  0.93929557D-02
  0.12387525D-01 -0.23165739D-01 -0.37568042D-02  0.16240935D-03  0.81566718D-07
  0.00000000D+00 -0.00000000D+00  0.70816279D-06 -0.00000000D+00  0.00000000D+00
 -0.93829859D-05  0.00000000D+00 -0.00000000D+00 -0.30483502D-04 -0.00000000D+00
 -0.00000000D+00 -0.14605392D-08 -0.56521647D-09 -0.56521647D-09 -0.00000000D+00
  0.00000000D+00  0.00000000D+00 -0.17100020D-07 -0.23094310D-07 -0.23094310D-07
  0.00000000D+00 -0.00000000D+00 -0.00000000D+00
MO    3     MO 0.0        OCC NO =    0.0000000  ORB. ENERGY =    0.004179
 -0.49076948D-03 -0.96652812D-04  0.38185650D-02 -0.57776518D-02 -0.10574095D-02
 -0.49197461D-02 -0.36852514D-02  0.79855143D-02  0.17436822D-02 -0.19741862D-03
  0.19971213D-04 -0.00000000D+00 -0.00000000D+00 -0.24753886D-04  0.00000000D+00
  0.00000000D+00  0.10612687D-03 -0.00000000D+00 -0.00000000D+00 -0.41602317D-04
  0.00000000D+00  0.00000000D+00  0.78193189D-07  0.41804299D-08  0.41804299D-08
 -0.00000000D+00 -0.00000000D+00 -0.00000000D+00 -0.86277044D-07  0.98410856D-07
  0.98410856D-07  0.00000000D+00  0.00000000D+00 -0.00000000D+00 -0.49076948D-03
 -0.96652812D-04  0.38185650D-02 -0.57776518D-02 -0.10574095D-02 -0.49197461D-02
 -0.36852514D-02  0.79855143D-02  0.17436822D-02 -0.19741862D-03 -0.19971213D-04
  0.00000000D+00  0.00000000D+00  0.24753886D-04 -0.00000000D+00 -0.00000000D+00
 -0.10612687D-03  0.00000000D+00  0.00000000D+00  0.41602317D-04 -0.00000000D+00
 -0.00000000D+00  0.78193189D-07  0.41804299D-08  0.41804299D-08 -0.00000000D+00
 -0.00000000D+00  0.00000000D+00 -0.86277044D-07  0.98410856D-07  0.98410856D-07
  0.00000000D+00  0.00000000D+00  0.00000000D+00
MO    4     MO 0.0        OCC NO =    0.0000000  ORB. ENERGY =    0.006023
  0.00000000D+00  0.00000000D+00 -0.00000000D+00  0.00000000D+00 -0.00000000D+00
  0.00000000D+00 -0.00000000D+00  0.00000000D+00 -0.00000000D+00  0.00000000D+00
 -0.00000000D+00  0.27932353D-08 -0.38664870D-06  0.00000000D+00 -0.34408607D-07
  0.47630275D-05  0.00000000D+00  0.47543377D-06 -0.65811883D-04  0.00000000D+00
  0.25593189D-05 -0.35427306D-03 -0.00000000D+00 -0.00000000D+00 -0.00000000D+00
 -0.16489154D-10  0.22823965D-08  0.00000000D+00 -0.00000000D+00 -0.00000000D+00
 -0.00000000D+00  0.47091153D-09 -0.65185443D-07  0.00000000D+00  0.00000000D+00
  0.00000000D+00 -0.00000000D+00  0.00000000D+00  0.00000000D+00  0.00000000D+00
 -0.00000000D+00  0.00000000D+00 -0.00000000D+00  0.00000000D+00  0.00000000D+00
  0.27932353D-08 -0.38664870D-06 -0.00000000D+00 -0.34408607D-07  0.47630275D-05
  0.00000000D+00  0.47543377D-06 -0.65811883D-04 -0.00000000D+00  0.25593189D-05
 -0.35427306D-03 -0.00000000D+00  0.00000000D+00  0.00000000D+00  0.16489154D-10
 -0.22823965D-08 -0.00000000D+00  0.00000000D+00  0.00000000D+00 -0.00000000D+00
 -0.47091153D-09  0.65185443D-07 -0.00000000D+00
MO    5     MO 0.0        OCC NO =    0.0000000  ORB. ENERGY =    0.006023
  0.00000000D+00  0.00000000D+00 -0.00000000D+00  0.00000000D+00 -0.00000000D+00
  0.00000000D+00 -0.00000000D+00  0.00000000D+00 -0.00000000D+00  0.00000000D+00
 -0.00000000D+00 -0.38664870D-06 -0.27932353D-08 -0.00000000D+00  0.47630275D-05
  0.34408607D-07 -0.00000000D+00 -0.65811883D-04 -0.47543377D-06  0.00000000D+00
 -0.35427306D-03 -0.25593189D-05 -0.00000000D+00 -0.00000000D+00 -0.00000000D+00
  0.22823965D-08  0.16489154D-10  0.00000000D+00 -0.00000000D+00 -0.00000000D+00
 -0.00000000D+00 -0.65185443D-07 -0.47091153D-09  0.00000000D+00  0.00000000D+00
  0.00000000D+00  0.00000000D+00 -0.00000000D+00  0.00000000D+00  0.00000000D+00
  0.00000000D+00  0.00000000D+00 -0.00000000D+00  0.00000000D+00  0.00000000D+00
 -0.38664870D-06 -0.27932353D-08  0.00000000D+00  0.47630275D-05  0.34408607D-07
 -0.00000000D+00 -0.65811883D-04 -0.47543377D-06  0.00000000D+00 -0.35427306D-03
 -0.25593189D-05 -0.00000000D+00  0.00000000D+00  0.00000000D+00 -0.22823965D-08
 -0.16489154D-10 -0.00000000D+00  0.00000000D+00  0.00000000D+00  0.00000000D+00
  0.65185443D-07  0.47091153D-09 -0.00000000D+00
MO    6     MO 0.0        OCC NO =    0.0000000  ORB. ENERGY =    0.008416
  0.00000000D+00  0.00000000D+00 -0.00000000D+00 -0.00000000D+00  0.00000000D+00
  0.00000000D+00 -0.00000000D+00  0.00000000D+00 -0.00000000D+00  0.00000000D+00
  0.00000000D+00 -0.51312275D-05 -0.10231660D-05  0.00000000D+00  0.83528948D-06
  0.16655645D-06 -0.00000000D+00 -0.18518793D-04 -0.36926436D-05 -0.00000000D+00
 -0.63140970D-03 -0.12590301D-03 -0.00000000D+00  0.00000000D+00  0.00000000D+00
 -0.17966113D-07 -0.35824397D-08 -0.00000000D+00  0.00000000D+00  0.00000000D+00
  0.00000000D+00 -0.18786338D-07 -0.37460032D-08  0.00000000D+00 -0.00000000D+00
 -0.00000000D+00  0.00000000D+00  0.00000000D+00 -0.00000000D+00 -0.00000000D+00
 -0.00000000D+00  0.00000000D+00 -0.00000000D+00  0.00000000D+00  0.00000000D+00
  0.51312275D-05  0.10231660D-05  0.00000000D+00 -0.83528948D-06 -0.16655645D-06
 -0.00000000D+00  0.18518793D-04  0.36926436D-05 -0.00000000D+00  0.63140970D-03
  0.12590301D-03 -0.00000000D+00 -0.00000000D+00 -0.00000000D+00 -0.17966113D-07
 -0.35824397D-08  0.00000000D+00 -0.00000000D+00 -0.00000000D+00 -0.00000000D+00
 -0.18786338D-07 -0.37460032D-08 -0.00000000D+00
MO    7     MO 0.0        OCC NO =    0.0000000  ORB. ENERGY =    0.008416
  0.00000000D+00 -0.00000000D+00  0.00000000D+00 -0.00000000D+00  0.00000000D+00
  0.00000000D+00 -0.00000000D+00 -0.00000000D+00  0.00000000D+00  0.00000000D+00
  0.00000000D+00  0.10231660D-05 -0.51312275D-05 -0.00000000D+00 -0.16655645D-06
  0.83528948D-06  0.00000000D+00  0.36926436D-05 -0.18518793D-04 -0.00000000D+00
  0.12590301D-03 -0.63140970D-03  0.00000000D+00 -0.00000000D+00 -0.00000000D+00
  0.35824397D-08 -0.17966113D-07 -0.00000000D+00 -0.00000000D+00 -0.00000000D+00
 -0.00000000D+00  0.37460032D-08 -0.18786338D-07  0.00000000D+00 -0.00000000D+00
  0.00000000D+00 -0.00000000D+00 -0.00000000D+00  0.00000000D+00  0.00000000D+00
  0.00000000D+00 -0.00000000D+00  0.00000000D+00 -0.00000000D+00 -0.00000000D+00
 -0.10231660D-05  0.51312275D-05 -0.00000000D+00  0.16655645D-06 -0.83528948D-06
 -0.00000000D+00 -0.36926436D-05  0.18518793D-04  0.00000000D+00 -0.12590301D-03
  0.63140970D-03  0.00000000D+00  0.00000000D+00  0.00000000D+00  0.35824397D-08
 -0.17966113D-07  0.00000000D+00  0.00000000D+00 -0.00000000D+00 -0.00000000D+00
  0.37460032D-08 -0.18786338D-07 -0.00000000D+00
MO    8     MO 0.0        OCC NO =    0.0000000  ORB. ENERGY =    0.009250
 -0.19677506D-04  0.69281148D-05  0.99372359D-02  0.15420491D-02 -0.10871702D-01
 -0.82439555D-03 -0.80603395D-02  0.12081934D-01  0.85168728D-03  0.28665908D-03
  0.19572583D-05  0.00000000D+00 -0.00000000D+00 -0.15429750D-05 -0.00000000D+00
  0.00000000D+00  0.22934574D-03  0.00000000D+00 -0.00000000D+00  0.27302145D-03
 -0.00000000D+00  0.00000000D+00  0.17129265D-07  0.30129514D-07  0.30129514D-07
  0.00000000D+00 -0.00000000D+00  0.00000000D+00  0.29488489D-06  0.13214124D-06
  0.13214124D-06 -0.00000000D+00  0.00000000D+00 -0.00000000D+00  0.19677506D-04
 -0.69281148D-05 -0.99372359D-02 -0.15420491D-02  0.10871702D-01  0.82439555D-03
  0.80603395D-02 -0.12081934D-01 -0.85168728D-03 -0.28665908D-03  0.19572583D-05
 -0.00000000D+00  0.00000000D+00 -0.15429750D-05  0.00000000D+00 -0.00000000D+00
  0.22934574D-03 -0.00000000D+00  0.00000000D+00  0.27302145D-03  0.00000000D+00
 -0.00000000D+00 -0.17129265D-07 -0.30129514D-07 -0.30129514D-07  0.00000000D+00
 -0.00000000D+00 -0.00000000D+00 -0.29488489D-06 -0.13214124D-06 -0.13214124D-06
 -0.00000000D+00  0.00000000D+00  0.00000000D+00
MO    9     MO 0.0        OCC NO =    0.0000000  ORB. ENERGY =    0.009623
 -0.26904924D-03  0.45030794D-03  0.16421991D-02 -0.78239170D-02  0.93271391D-02
 -0.22860499D-02  0.55740819D-02 -0.68420386D-02  0.24139903D-03 -0.39725330D-03
  0.20485217D-04 -0.00000000D+00 -0.00000000D+00 -0.22190188D-04  0.00000000D+00
  0.00000000D+00  0.10922538D-03 -0.00000000D+00 -0.00000000D+00 -0.63367071D-03
 -0.00000000D+00  0.00000000D+00  0.72721447D-07 -0.36311443D-08 -0.36311443D-08
 -0.00000000D+00 -0.00000000D+00 -0.00000000D+00 -0.24819247D-06 -0.85201339D-07
 -0.85201339D-07  0.00000000D+00  0.00000000D+00 -0.00000000D+00 -0.26904924D-03
  0.45030794D-03  0.16421991D-02 -0.78239170D-02  0.93271391D-02 -0.22860499D-02
  0.55740819D-02 -0.68420386D-02  0.24139903D-03 -0.39725330D-03 -0.20485217D-04
  0.00000000D+00  0.00000000D+00  0.22190188D-04 -0.00000000D+00 -0.00000000D+00
 -0.10922538D-03  0.00000000D+00  0.00000000D+00  0.63367071D-03 -0.00000000D+00
 -0.00000000D+00  0.72721447D-07 -0.36311443D-08 -0.36311443D-08 -0.00000000D+00
 -0.00000000D+00 -0.00000000D+00 -0.24819247D-06 -0.85201339D-07 -0.85201339D-07
  0.00000000D+00  0.00000000D+00  0.00000000D+00
MO   10     MO 0.0        OCC NO =    0.0000000  ORB. ENERGY =    0.013228
  0.00000000D+00 -0.00000000D+00 -0.00000000D+00  0.00000000D+00 -0.00000000D+00
 -0.00000000D+00 -0.00000000D+00  0.00000000D+00  0.00000000D+00 -0.00000000D+00
 -0.00000000D+00 -0.60550830D-06  0.78019283D-06  0.00000000D+00  0.78931172D-05
 -0.10170222D-04 -0.00000000D+00 -0.13270844D-03  0.17099383D-03 -0.00000000D+00
  0.50337730D-03 -0.64859787D-03 -0.00000000D+00 -0.00000000D+00  0.00000000D+00
  0.20002364D-08 -0.25772884D-08  0.00000000D+00  0.00000000D+00  0.00000000D+00
  0.00000000D+00 -0.88594630D-07  0.11415350D-06 -0.00000000D+00  0.00000000D+00
 -0.00000000D+00 -0.00000000D+00  0.00000000D+00 -0.00000000D+00 -0.00000000D+00
 -0.00000000D+00  0.00000000D+00  0.00000000D+00 -0.00000000D+00  0.00000000D+00
 -0.60550830D-06  0.78019283D-06 -0.00000000D+00  0.78931172D-05 -0.10170222D-04
  0.00000000D+00 -0.13270844D-03  0.17099383D-03  0.00000000D+00  0.50337730D-03
 -0.64859787D-03 -0.00000000D+00  0.00000000D+00  0.00000000D+00 -0.20002364D-08
  0.25772884D-08 -0.00000000D+00  0.00000000D+00  0.00000000D+00  0.00000000D+00
  0.88594630D-07 -0.11415350D-06  0.00000000D+00
MO   11     MO 0.0        OCC NO =    0.0000000  ORB. ENERGY =    0.013228
 -0.00000000D+00 -0.00000000D+00 -0.00000000D+00  0.00000000D+00 -0.00000000D+00
  0.00000000D+00 -0.00000000D+00  0.00000000D+00  0.00000000D+00 -0.00000000D+00
  0.00000000D+00  0.78019283D-06  0.60550830D-06 -0.00000000D+00 -0.10170222D-04
 -0.78931172D-05 -0.00000000D+00  0.17099383D-03  0.13270844D-03  0.00000000D+00
 -0.64859787D-03 -0.50337730D-03  0.00000000D+00 -0.00000000D+00 -0.00000000D+00
 -0.25772884D-08 -0.20002364D-08  0.00000000D+00 -0.00000000D+00 -0.00000000D+00
 -0.00000000D+00  0.11415350D-06  0.88594630D-07 -0.00000000D+00 -0.00000000D+00
 -0.00000000D+00 -0.00000000D+00  0.00000000D+00 -0.00000000D+00 -0.00000000D+00
 -0.00000000D+00  0.00000000D+00  0.00000000D+00 -0.00000000D+00 -0.00000000D+00
  0.78019283D-06  0.60550830D-06  0.00000000D+00 -0.10170222D-04 -0.78931172D-05
 -0.00000000D+00  0.17099383D-03  0.13270844D-03  0.00000000D+00 -0.64859787D-03
 -0.50337730D-03  0.00000000D+00  0.00000000D+00 -0.00000000D+00  0.25772884D-08
  0.20002364D-08 -0.00000000D+00  0.00000000D+00 -0.00000000D+00 -0.00000000D+00
 -0.11415350D-06 -0.88594630D-07  0.00000000D+00
MO   12     MO 0.0        OCC NO =    0.0000000  ORB. ENERGY =    0.013432
 -0.15668797D-03  0.24798587D-03  0.11328498D-02 -0.13036915D-01  0.17783414D-01
  0.15768337D-03  0.10268621D-01 -0.14929671D-01 -0.86774176D-03 -0.41745824D-03
  0.14004386D-04 -0.00000000D+00 -0.00000000D+00 -0.86688478D-05 -0.00000000D+00
  0.00000000D+00  0.79941963D-04 -0.00000000D+00  0.00000000D+00  0.13049363D-03
  0.00000000D+00 -0.00000000D+00  0.48248890D-07 -0.32408483D-08 -0.32408483D-08
 -0.00000000D+00 -0.00000000D+00  0.00000000D+00 -0.10899484D-06 -0.81158209D-07
 -0.81158209D-07 -0.00000000D+00  0.00000000D+00 -0.00000000D+00 -0.15668797D-03
  0.24798587D-03  0.11328498D-02 -0.13036915D-01  0.17783414D-01  0.15768337D-03
  0.10268621D-01 -0.14929671D-01 -0.86774176D-03 -0.41745824D-03 -0.14004386D-04
  0.00000000D+00  0.00000000D+00  0.86688478D-05  0.00000000D+00 -0.00000000D+00
 -0.79941963D-04 -0.00000000D+00  0.00000000D+00 -0.13049363D-03  0.00000000D+00
 -0.00000000D+00  0.48248890D-07 -0.32408483D-08 -0.32408483D-08 -0.00000000D+00
 -0.00000000D+00 -0.00000000D+00 -0.10899484D-06 -0.81158209D-07 -0.81158209D-07
 -0.00000000D+00  0.00000000D+00  0.00000000D+00
MO   13     MO 0.0        OCC NO =    0.0000000  ORB. ENERGY =    0.014045
  0.10807765D-04  0.49966806D-04 -0.16480003D-02 -0.46873674D-03  0.76664475D-03
 -0.32372621D-02 -0.27387809D-03  0.20793527D-02  0.93836067D-03 -0.20612356D-03
 -0.10393318D-05 -0.00000000D+00  0.00000000D+00 -0.33936065D-05  0.00000000D+00
 -0.00000000D+00  0.59570195D-05 -0.00000000D+00  0.00000000D+00 -0.95465667D-03
 -0.00000000D+00 -0.00000000D+00 -0.13865672D-07 -0.12126302D-07 -0.12126302D-07
 -0.00000000D+00  0.00000000D+00 -0.00000000D+00 -0.17770578D-06 -0.16971430D-06
 -0.16971430D-06  0.00000000D+00 -0.00000000D+00  0.00000000D+00 -0.10807765D-04
 -0.49966806D-04  0.16480003D-02  0.46873674D-03 -0.76664475D-03  0.32372621D-02
  0.27387809D-03 -0.20793527D-02 -0.93836067D-03  0.20612356D-03 -0.10393318D-05
  0.00000000D+00 -0.00000000D+00 -0.33936065D-05 -0.00000000D+00  0.00000000D+00
  0.59570195D-05  0.00000000D+00  0.00000000D+00 -0.95465667D-03 -0.00000000D+00
 -0.00000000D+00  0.13865672D-07  0.12126302D-07  0.12126302D-07 -0.00000000D+00
  0.00000000D+00  0.00000000D+00  0.17770578D-06  0.16971430D-06  0.16971430D-06
  0.00000000D+00  0.00000000D+00 -0.00000000D+00
MO   14     MO 0.0        OCC NO =    0.0000000  ORB. ENERGY =    0.017972
 -0.11304229D-04  0.83951458D-04  0.17343650D-01 -0.23874436D-01  0.23988124D-01
 -0.28161723D-02  0.11136520D-01 -0.14647000D-01 -0.14184050D-03 -0.64197470D-03
  0.11865594D-05  0.00000000D+00 -0.00000000D+00 -0.54538678D-05 -0.00000000D+00
  0.00000000D+00  0.43564159D-03  0.00000000D+00  0.00000000D+00 -0.25161283D-03
 -0.00000000D+00 -0.00000000D+00  0.27340176D-08  0.23987605D-07  0.23987605D-07
  0.00000000D+00 -0.00000000D+00  0.00000000D+00  0.17652430D-06 -0.53082373D-07
 -0.53082373D-07 -0.00000000D+00  0.00000000D+00 -0.00000000D+00  0.11304229D-04
 -0.83951458D-04 -0.17343650D-01  0.23874436D-01 -0.23988124D-01  0.28161723D-02
 -0.11136520D-01  0.14647000D-01  0.14184050D-03  0.64197470D-03  0.11865594D-05
 -0.00000000D+00  0.00000000D+00 -0.54538678D-05  0.00000000D+00 -0.00000000D+00
  0.43564159D-03 -0.00000000D+00 -0.00000000D+00 -0.25161283D-03  0.00000000D+00
  0.00000000D+00 -0.27340176D-08 -0.23987605D-07 -0.23987605D-07  0.00000000D+00
 -0.00000000D+00 -0.00000000D+00 -0.17652430D-06  0.53082373D-07  0.53082373D-07
 -0.00000000D+00  0.00000000D+00  0.00000000D+00
MO   15     MO 0.0        OCC NO =    0.0000000  ORB. ENERGY =    0.019539
  0.00000000D+00 -0.00000000D+00  0.00000000D+00 -0.00000000D+00  0.00000000D+00
 -0.00000000D+00  0.00000000D+00 -0.00000000D+00  0.00000000D+00 -0.00000000D+00
  0.00000000D+00 -0.80386083D-04 -0.73887956D-04 -0.00000000D+00  0.69801415D-04
  0.64158916D-04  0.00000000D+00 -0.28817419D-03 -0.26487921D-03 -0.00000000D+00
  0.54129729D-03  0.49754074D-03  0.00000000D+00  0.00000000D+00  0.00000000D+00
 -0.29024782D-06 -0.26678521D-06 -0.00000000D+00 -0.00000000D+00  0.00000000D+00
  0.00000000D+00  0.48548945D-06  0.44624420D-06  0.00000000D+00 -0.00000000D+00
  0.00000000D+00 -0.00000000D+00  0.00000000D+00 -0.00000000D+00  0.00000000D+00
 -0.00000000D+00  0.00000000D+00 -0.00000000D+00  0.00000000D+00 -0.00000000D+00
  0.80386083D-04  0.73887956D-04  0.00000000D+00 -0.69801415D-04 -0.64158916D-04
  0.00000000D+00  0.28817419D-03  0.26487921D-03  0.00000000D+00 -0.54129729D-03
 -0.49754074D-03  0.00000000D+00 -0.00000000D+00 -0.00000000D+00 -0.29024782D-06
 -0.26678521D-06  0.00000000D+00 -0.00000000D+00 -0.00000000D+00 -0.00000000D+00
  0.48548945D-06  0.44624420D-06 -0.00000000D+00
MO   16     MO 0.0        OCC NO =    0.0000000  ORB. ENERGY =    0.019539
  0.00000000D+00  0.00000000D+00  0.00000000D+00 -0.00000000D+00  0.00000000D+00
 -0.00000000D+00  0.00000000D+00 -0.00000000D+00  0.00000000D+00 -0.00000000D+00
 -0.00000000D+00 -0.73887956D-04  0.80386083D-04  0.00000000D+00  0.64158916D-04
 -0.69801415D-04  0.00000000D+00 -0.26487921D-03  0.28817419D-03  0.00000000D+00
  0.49754074D-03 -0.54129729D-03 -0.00000000D+00  0.00000000D+00  0.00000000D+00
 -0.26678521D-06  0.29024782D-06 -0.00000000D+00  0.00000000D+00  0.00000000D+00
  0.00000000D+00  0.44624420D-06 -0.48548945D-06  0.00000000D+00 -0.00000000D+00
 -0.00000000D+00 -0.00000000D+00  0.00000000D+00 -0.00000000D+00  0.00000000D+00
 -0.00000000D+00  0.00000000D+00  0.00000000D+00 -0.00000000D+00  0.00000000D+00
  0.73887956D-04 -0.80386083D-04  0.00000000D+00 -0.64158916D-04  0.69801415D-04
  0.00000000D+00  0.26487921D-03 -0.28817419D-03  0.00000000D+00 -0.49754074D-03
  0.54129729D-03 -0.00000000D+00 -0.00000000D+00 -0.00000000D+00 -0.26678521D-06
  0.29024782D-06  0.00000000D+00 -0.00000000D+00 -0.00000000D+00  0.00000000D+00
  0.44624420D-06 -0.48548945D-06 -0.00000000D+00
MO   17     MO 0.0        OCC NO =    0.0000000  ORB. ENERGY =    0.024082
 -0.97935677D-03  0.24527833D-02 -0.67009850D-02  0.10274456D-01 -0.83912529D-02
 -0.18879676D-02 -0.32158272D-02  0.56022271D-02  0.79265981D-03  0.99011317D-05
  0.69867400D-04 -0.00000000D+00 -0.00000000D+00 -0.73669597D-04  0.00000000D+00
  0.00000000D+00  0.27501604D-03  0.00000000D+00 -0.00000000D+00 -0.55002889D-03
 -0.00000000D+00 -0.00000000D+00  0.25211401D-06 -0.99591529D-08 -0.99591529D-08
 -0.00000000D+00 -0.00000000D+00 -0.00000000D+00 -0.92326354D-06 -0.34376217D-06
 -0.34376217D-06  0.00000000D+00  0.00000000D+00 -0.00000000D+00 -0.97935677D-03
  0.24527833D-02 -0.67009850D-02  0.10274456D-01 -0.83912529D-02 -0.18879676D-02
 -0.32158272D-02  0.56022271D-02  0.79265981D-03  0.99011317D-05 -0.69867400D-04
  0.00000000D+00  0.00000000D+00  0.73669597D-04 -0.00000000D+00 -0.00000000D+00
 -0.27501604D-03 -0.00000000D+00  0.00000000D+00  0.55002889D-03  0.00000000D+00
  0.00000000D+00  0.25211401D-06 -0.99591529D-08 -0.99591529D-08 -0.00000000D+00
 -0.00000000D+00 -0.00000000D+00 -0.92326354D-06 -0.34376217D-06 -0.34376217D-06
  0.00000000D+00  0.00000000D+00  0.00000000D+00
MO   18     MO 0.0        OCC NO =    0.0000000  ORB. ENERGY =    0.026460
 -0.48993954D-04 -0.55112329D-03 -0.78371674D-02 -0.11055810D-02  0.10076168D-02
  0.15090541D-02  0.47138296D-03 -0.14100961D-02 -0.42155206D-03  0.68230167D-04
  0.45464819D-05 -0.00000000D+00  0.00000000D+00  0.42174026D-04  0.00000000D+00
 -0.00000000D+00 -0.78634025D-03 -0.00000000D+00  0.00000000D+00  0.74480534D-03
 -0.00000000D+00 -0.00000000D+00  0.83448955D-07  0.34764758D-07  0.34764758D-07
 -0.00000000D+00  0.00000000D+00 -0.00000000D+00  0.98424938D-06  0.12696444D-05
  0.12696444D-05  0.00000000D+00 -0.00000000D+00  0.00000000D+00  0.48993954D-04
  0.55112329D-03  0.78371674D-02  0.11055810D-02 -0.10076168D-02 -0.15090541D-02
 -0.47138296D-03  0.14100961D-02  0.42155206D-03 -0.68230167D-04  0.45464819D-05
  0.00000000D+00 -0.00000000D+00  0.42174026D-04 -0.00000000D+00  0.00000000D+00
 -0.78634025D-03  0.00000000D+00 -0.00000000D+00  0.74480534D-03  0.00000000D+00
  0.00000000D+00 -0.83448955D-07 -0.34764758D-07 -0.34764758D-07 -0.00000000D+00
  0.00000000D+00  0.00000000D+00 -0.98424938D-06 -0.12696444D-05 -0.12696444D-05
  0.00000000D+00 -0.00000000D+00 -0.00000000D+00
MO   19     MO 0.0        OCC NO =    0.0000000  ORB. ENERGY =    0.029376
  0.37391951D-02  0.36951151D-02 -0.17721070D-01  0.17791179D-01 -0.83399546D-02
 -0.51987688D-02 -0.19492283D-02  0.54824512D-02  0.16225722D-02 -0.25991655D-03
 -0.65173067D-04  0.00000000D+00  0.00000000D+00  0.12846761D-03 -0.00000000D+00
 -0.00000000D+00 -0.74856988D-04  0.00000000D+00  0.00000000D+00  0.18429111D-03
 -0.00000000D+00 -0.00000000D+00 -0.33452430D-06 -0.87472658D-07 -0.87472658D-07
  0.00000000D+00  0.00000000D+00 -0.00000000D+00 -0.64002717D-06 -0.18783163D-05
 -0.18783163D-05 -0.00000000D+00 -0.00000000D+00  0.00000000D+00  0.37391951D-02
  0.36951151D-02 -0.17721070D-01  0.17791179D-01 -0.83399546D-02 -0.51987688D-02
 -0.19492283D-02  0.54824512D-02  0.16225722D-02 -0.25991655D-03  0.65173067D-04
 -0.00000000D+00 -0.00000000D+00 -0.12846761D-03  0.00000000D+00  0.00000000D+00
  0.74856988D-04 -0.00000000D+00 -0.00000000D+00 -0.18429111D-03  0.00000000D+00
  0.00000000D+00 -0.33452430D-06 -0.87472658D-07 -0.87472658D-07  0.00000000D+00
  0.00000000D+00  0.00000000D+00 -0.64002717D-06 -0.18783163D-05 -0.18783163D-05
 -0.00000000D+00 -0.00000000D+00 -0.00000000D+00
MO   20     MO 0.0        OCC NO =    0.0000000  ORB. ENERGY =    0.038460
 -0.41744841D-03 -0.68329726D-03  0.16244971D-01 -0.10302224D-01 -0.10277271D-02
  0.13943685D-01 -0.19672765D-02 -0.38615951D-02 -0.33087701D-02  0.86735572D-03
  0.39199618D-04 -0.00000000D+00 -0.00000000D+00  0.18195377D-04  0.00000000D+00
  0.00000000D+00 -0.19726743D-03 -0.00000000D+00 -0.00000000D+00  0.21566155D-03
  0.00000000D+00  0.00000000D+00  0.62570086D-06  0.60168325D-06  0.60168325D-06
 -0.00000000D+00 -0.00000000D+00  0.00000000D+00  0.47547062D-05  0.45180311D-05
  0.45180311D-05  0.00000000D+00  0.00000000D+00 -0.00000000D+00  0.41744841D-03
  0.68329726D-03 -0.16244971D-01  0.10302224D-01  0.10277271D-02 -0.13943685D-01
  0.19672765D-02  0.38615951D-02  0.33087701D-02 -0.86735572D-03  0.39199618D-04
  0.00000000D+00  0.00000000D+00  0.18195377D-04 -0.00000000D+00 -0.00000000D+00
 -0.19726743D-03  0.00000000D+00  0.00000000D+00  0.21566155D-03 -0.00000000D+00
 -0.00000000D+00 -0.62570086D-06 -0.60168325D-06 -0.60168325D-06 -0.00000000D+00
 -0.00000000D+00 -0.00000000D+00 -0.47547062D-05 -0.45180311D-05 -0.45180311D-05
  0.00000000D+00  0.00000000D+00  0.00000000D+00
MO   21     MO 0.0        OCC NO =    0.0000000  ORB. ENERGY =    0.039845
  0.00000000D+00  0.00000000D+00 -0.00000000D+00  0.00000000D+00  0.00000000D+00
 -0.00000000D+00  0.00000000D+00  0.00000000D+00  0.00000000D+00 -0.00000000D+00
 -0.00000000D+00 -0.00000000D+00 -0.00000000D+00 -0.00000000D+00  0.00000000D+00
  0.00000000D+00  0.00000000D+00 -0.00000000D+00 -0.00000000D+00 -0.00000000D+00
  0.00000000D+00  0.00000000D+00 -0.00000000D+00  0.47854412D-07 -0.47854412D-07
 -0.00000000D+00 -0.00000000D+00 -0.58792215D-09 -0.00000000D+00 -0.64339560D-06
  0.64339560D-06  0.00000000D+00  0.00000000D+00  0.79045293D-08  0.00000000D+00
 -0.00000000D+00  0.00000000D+00 -0.00000000D+00  0.00000000D+00 -0.00000000D+00
  0.00000000D+00 -0.00000000D+00  0.00000000D+00 -0.00000000D+00  0.00000000D+00
  0.00000000D+00  0.00000000D+00 -0.00000000D+00 -0.00000000D+00 -0.00000000D+00
  0.00000000D+00  0.00000000D+00  0.00000000D+00 -0.00000000D+00 -0.00000000D+00
 -0.00000000D+00 -0.00000000D+00  0.47854412D-07 -0.47854412D-07 -0.00000000D+00
 -0.00000000D+00 -0.58792215D-09  0.00000000D+00 -0.64339560D-06  0.64339560D-06
  0.00000000D+00  0.00000000D+00  0.79045293D-08
MO   22     MO 0.0        OCC NO =    0.0000000  ORB. ENERGY =    0.039845
 -0.00000000D+00  0.00000000D+00 -0.00000000D+00  0.00000000D+00  0.00000000D+00
 -0.00000000D+00  0.00000000D+00  0.00000000D+00  0.00000000D+00 -0.00000000D+00
  0.00000000D+00  0.00000000D+00 -0.00000000D+00 -0.00000000D+00 -0.00000000D+00
  0.00000000D+00  0.00000000D+00  0.00000000D+00 -0.00000000D+00 -0.00000000D+00
 -0.00000000D+00  0.00000000D+00  0.00000000D+00 -0.29396181D-09  0.29396181D-09
  0.00000000D+00 -0.00000000D+00 -0.95708821D-07 -0.00000000D+00  0.39522624D-08
 -0.39522624D-08 -0.00000000D+00  0.00000000D+00  0.12867912D-05 -0.00000000D+00
  0.00000000D+00  0.00000000D+00 -0.00000000D+00 -0.00000000D+00  0.00000000D+00
 -0.00000000D+00  0.00000000D+00 -0.00000000D+00  0.00000000D+00 -0.00000000D+00
 -0.00000000D+00  0.00000000D+00  0.00000000D+00  0.00000000D+00 -0.00000000D+00
 -0.00000000D+00 -0.00000000D+00  0.00000000D+00  0.00000000D+00  0.00000000D+00
 -0.00000000D+00  0.00000000D+00 -0.29396181D-09  0.29396181D-09  0.00000000D+00
 -0.00000000D+00 -0.95708821D-07 -0.00000000D+00  0.39522624D-08 -0.39522624D-08
 -0.00000000D+00  0.00000000D+00  0.12867912D-05
MO   23     MO 0.0        OCC NO =    0.0000000  ORB. ENERGY =    0.042488
 -0.22171280D-03  0.96579894D-03 -0.34974246D-02  0.25178644D-02  0.50288193D-02
 -0.13155158D-01  0.28520893D-02  0.20748967D-02  0.29138456D-02 -0.82389023D-03
  0.19088099D-04 -0.00000000D+00 -0.00000000D+00 -0.10312828D-03  0.00000000D+00
  0.00000000D+00  0.12557091D-03 -0.00000000D+00 -0.00000000D+00 -0.14017029D-03
  0.00000000D+00  0.00000000D+00  0.51366355D-06  0.47423856D-06  0.47423856D-06
 -0.00000000D+00 -0.00000000D+00  0.00000000D+00  0.10248666D-07  0.53490061D-06
  0.53490061D-06  0.00000000D+00  0.00000000D+00 -0.00000000D+00  0.22171281D-03
 -0.96579894D-03  0.34974246D-02 -0.25178644D-02 -0.50288193D-02  0.13155158D-01
 -0.28520893D-02 -0.20748967D-02 -0.29138456D-02  0.82389023D-03  0.19088099D-04
  0.00000000D+00  0.00000000D+00 -0.10312828D-03 -0.00000000D+00 -0.00000000D+00
  0.12557091D-03  0.00000000D+00  0.00000000D+00 -0.14017029D-03 -0.00000000D+00
 -0.00000000D+00 -0.51366355D-06 -0.47423856D-06 -0.47423856D-06 -0.00000000D+00
 -0.00000000D+00 -0.00000000D+00 -0.10248666D-07 -0.53490061D-06 -0.53490061D-06
  0.00000000D+00  0.00000000D+00  0.00000000D+00
MO   24     MO 0.0        OCC NO =    0.0000000  ORB. ENERGY =    0.043298
  0.11494680D-01 -0.42420879D-02 -0.11899280D-02  0.22455280D-03 -0.16625414D-02
  0.36713376D-02 -0.84921245D-03 -0.49635082D-03 -0.80335241D-03  0.23062768D-03
 -0.42798390D-03  0.00000000D+00  0.00000000D+00  0.13655110D-03 -0.00000000D+00
 -0.00000000D+00 -0.77019043D-04  0.00000000D+00 -0.00000000D+00  0.78624250D-04
  0.00000000D+00  0.00000000D+00 -0.18282663D-05 -0.15131798D-06 -0.15131798D-06
  0.00000000D+00  0.00000000D+00 -0.00000000D+00  0.25021717D-06 -0.10404622D-05
 -0.10404622D-05 -0.00000000D+00 -0.00000000D+00  0.00000000D+00  0.11494680D-01
 -0.42420879D-02 -0.11899280D-02  0.22455280D-03 -0.16625414D-02  0.36713376D-02
 -0.84921245D-03 -0.49635082D-03 -0.80335241D-03  0.23062768D-03  0.42798390D-03
 -0.00000000D+00 -0.00000000D+00 -0.13655110D-03  0.00000000D+00  0.00000000D+00