[Molden Format]
[Title]
 Molden2AIM, Version 3.1.0 (02/25/2015)           Time: Thu Oct 17 19:55:42 2024

[Atoms] AU
E+       1       4     0.00000000     0.00000000     0.00000000
E+       2       4    49.40000000     0.00000000     0.00000000
[GTO]
    1 0
 S   1 1.0
    0.1000000000D-03      0.1000000000D+01
 S   1 1.0
    0.3000000000D-03      0.1000000000D+01
 S   1 1.0
    0.9000000000D-03      0.1000000000D+01
 S   1 1.0
    0.2700000000D-02      0.1000000000D+01
 S   1 1.0
    0.8100000000D-02      0.1000000000D+01
 S   1 1.0
    0.2430000000D-01      0.1000000000D+01
 S   1 1.0
    0.7290000000D-01      0.1000000000D+01
 S   1 1.0
    0.2187000000D+00      0.1000000000D+01
 S   1 1.0
    0.6561000000D+00      0.1000000000D+01
 S   1 1.0
    0.1968300000D+01      0.1000000000D+01
 P   1 1.0
    0.1000000000D-03      0.1000000000D+01
 P   1 1.0
    0.3000000000D-03      0.1000000000D+01
 P   1 1.0
    0.9000000000D-03      0.1000000000D+01
 P   1 1.0
    0.2700000000D-02      0.1000000000D+01
 D   1 1.0
    0.1000000000D-03      0.1000000000D+01
 D   1 1.0
    0.3000000000D-03      0.1000000000D+01

    2 0
 S   1 1.0
    0.1000000000D-03      0.1000000000D+01
 S   1 1.0
    0.3000000000D-03      0.1000000000D+01
 S   1 1.0
    0.9000000000D-03      0.1000000000D+01
 S   1 1.0
    0.2700000000D-02      0.1000000000D+01
 S   1 1.0
    0.8100000000D-02      0.1000000000D+01
 S   1 1.0
    0.2430000000D-01      0.1000000000D+01
 S   1 1.0
    0.7290000000D-01      0.1000000000D+01
 S   1 1.0
    0.2187000000D+00      0.1000000000D+01
 S   1 1.0
    0.6561000000D+00      0.1000000000D+01
 S   1 1.0
    0.1968300000D+01      0.1000000000D+01
 P   1 1.0
    0.1000000000D-03      0.1000000000D+01
 P   1 1.0
    0.3000000000D-03      0.1000000000D+01
 P   1 1.0
    0.9000000000D-03      0.1000000000D+01
 P   1 1.0
    0.2700000000D-02      0.1000000000D+01
 D   1 1.0
    0.1000000000D-03      0.1000000000D+01
 D   1 1.0
    0.3000000000D-03      0.1000000000D+01


[MO]
 Ene=         -0.00001190
 Spin= Alpha
 Occup=        1.00000000
    1        0.0583921900
    2        0.0790708100
    3       -0.1506215000
    4       -0.2233339500
    5       -0.2183881100
    6       -0.1768721500
    7       -0.1051317100
    8        0.0858064500
    9        0.0060053000
   10       -0.0001029400
   11       -0.0234007300
   12        0.0000000000
   13        0.0000000000
   14       -0.0035648500
   15        0.0000000000
   16       -0.0000000000
   17       -0.0134254800
   18       -0.0000000000
   19       -0.0000000000
   20       -0.1826975400
   21        0.0000000000
   22        0.0000000000
   23       -0.0149687900
   24       -0.0070308800
   25       -0.0070308800
   26        0.0000000000
   27        0.0000000000
   28       -0.0000000000
   29       -0.0375071100
   30       -0.0256638000
   31       -0.0256638000
   32        0.0000000000
   33        0.0000000000
   34        0.0000000000
   35        0.0583921900
   36        0.0790708100
   37       -0.1506215000
   38       -0.2233339500
   39       -0.2183881100
   40       -0.1768721500
   41       -0.1051317100
   42        0.0858064500
   43        0.0060053000
   44       -0.0001029400
   45        0.0234007300
   46       -0.0000000000
   47       -0.0000000000
   48        0.0035648500
   49       -0.0000000000
   50       -0.0000000000
   51        0.0134254800
   52        0.0000000000
   53        0.0000000000
   54        0.1826975400
   55       -0.0000000000
   56        0.0000000000
   57       -0.0149687900
   58       -0.0070308800
   59       -0.0070308800
   60        0.0000000000
   61        0.0000000000
   62        0.0000000000
   63       -0.0375071100
   64       -0.0256638000
   65       -0.0256638000
   66        0.0000000000
   67       -0.0000000000
   68       -0.0000000000
 Ene=          0.00041105
 Spin= Alpha
 Occup=        0.00000000
    1       -0.0213899700
    2        1.4139865500
    3       -0.0079164000
    4        0.3210566200
    5        0.2228862800
    6        0.2048970100
    7        0.1129777900
    8       -0.0937983600
    9       -0.0068578700
   10        0.0001541600
   11        0.0205223500
   12        0.0000000000
   13        0.0000000000
   14        0.7295024200
   15       -0.0000000000
   16        0.0000000000
   17       -0.1006788800
   18       -0.0000000000
   19       -0.0000000000
   20        0.2067058600
   21        0.0000000000
   22        0.0000000000
   23        0.0185716500
   24        0.0166959800
   25        0.0166959800
   26        0.0000000000
   27        0.0000000000
   28        0.0000000000
   29        0.2279387800
   30        0.0439751100
   31        0.0439751100
   32       -0.0000000000
   33       -0.0000000000
   34       -0.0000000000
   35        0.0213899700
   36       -1.4139865500
   37        0.0079164000
   38       -0.3210566200
   39       -0.2228862800
   40       -0.2048970100
   41       -0.1129777900
   42        0.0937983600
   43        0.0068578700
   44       -0.0001541600
   45        0.0205223500
   46       -0.0000000000
   47       -0.0000000000
   48        0.7295024200
   49        0.0000000000
   50        0.0000000000
   51       -0.1006788800
   52       -0.0000000000
   53       -0.0000000000
   54        0.2067058600
   55        0.0000000000
   56        0.0000000000
   57       -0.0185716500
   58       -0.0166959800
   59       -0.0166959800
   60        0.0000000000
   61        0.0000000000
   62       -0.0000000000
   63       -0.2279387800
   64       -0.0439751100
   65       -0.0439751100
   66       -0.0000000000
   67        0.0000000000
   68        0.0000000000
 Ene=          0.00525958
 Spin= Alpha
 Occup=        0.00000000
    1        0.6144472000
    2        0.1623412200
    3       -0.9330444800
    4        0.5655494100
    5        0.1057622100
    6        0.1494103000
    7        0.0583866700
    8       -0.0528806600
    9       -0.0046642200
   10        0.0001974400
   11       -0.8387885500
   12       -0.0000000000
   13        0.0000000000
   14        0.2875180700
   15       -0.0000000000
   16        0.0000000000
   17       -0.4818184100
   18        0.0000000000
   19       -0.0000000000
   20        0.0784381900
   21        0.0000000000
   22        0.0000000000
   23       -0.3897365900
   24       -0.0295529700
   25       -0.0295529700
   26       -0.0000000000
   27        0.0000000000
   28        0.0000000000
   29       -0.0177634100
   30       -0.0965228100
   31       -0.0965228100
   32       -0.0000000000
   33       -0.0000000000
   34       -0.0000000000
   35        0.6144472000
   36        0.1623412200
   37       -0.9330444800
   38        0.5655494100
   39        0.1057622100
   40        0.1494103000
   41        0.0583866700
   42       -0.0528806600
   43       -0.0046642200
   44        0.0001974400
   45        0.8387885500
   46        0.0000000000
   47       -0.0000000000
   48       -0.2875180700
   49        0.0000000000
   50        0.0000000000
   51        0.4818184100
   52       -0.0000000000
   53       -0.0000000000
   54       -0.0784381900
   55        0.0000000000
   56        0.0000000000
   57       -0.3897365900
   58       -0.0295529700
   59       -0.0295529700
   60       -0.0000000000
   61        0.0000000000
   62       -0.0000000000
   63       -0.0177634100
   64       -0.0965228100
   65       -0.0965228100
   66       -0.0000000000
   67        0.0000000000
   68       -0.0000000000
 Ene=          0.01137760
 Spin= Alpha
 Occup=        0.00000000
    1       -0.0240575300
    2        4.7634831900
    3       -1.0092836600
    4       -0.3222858300
    5        0.5965027500
    6        0.0694147100
    7        0.0965695500
    8       -0.0684936300
    9       -0.0031376300
   10       -0.0001654000
   11       -0.0956578800
   12        0.0000000000
   13        0.0000000000
   14        2.2463251200
   15       -0.0000000000
   16        0.0000000000
   17       -0.3159497400
   18        0.0000000000
   19        0.0000000000
   20       -0.4574433700
   21        0.0000000000
   22        0.0000000000
   23       -0.0844624400
   24       -0.0655421900
   25       -0.0655421900
   26        0.0000000000
   27        0.0000000000
   28        0.0000000000
   29        0.4453852800
   30       -0.1226233300
   31       -0.1226233300
   32       -0.0000000000
   33        0.0000000000
   34       -0.0000000000
   35        0.0240575300
   36       -4.7634831900
   37        1.0092836600
   38        0.3222858300
   39       -0.5965027500
   40       -0.0694147100
   41       -0.0965695500
   42        0.0684936300
   43        0.0031376300
   44        0.0001654000
   45       -0.0956578800
   46       -0.0000000000
   47       -0.0000000000
   48        2.2463251200
   49        0.0000000000
   50       -0.0000000000
   51       -0.3159497400
   52       -0.0000000000
   53        0.0000000000
   54       -0.4574433700
   55        0.0000000000
   56        0.0000000000
   57        0.0844624400
   58        0.0655421900
   59        0.0655421900
   60        0.0000000000
   61        0.0000000000
   62       -0.0000000000
   63       -0.4453852800
   64        0.1226233300
   65        0.1226233300
   66       -0.0000000000
   67        0.0000000000
   68        0.0000000000
 Ene=          0.01169320
 Spin= Alpha
 Occup=        0.00000000
    1       -0.0000000000
    2        0.0000000000
    3       -0.0000000000
    4        0.0000000000
    5       -0.0000000000
    6       -0.0000000000
    7       -0.0000000000
    8        0.0000000000
    9       -0.0000000000
   10        0.0000000000
   11        0.0000000000
   12        0.0416483100
   13        0.0202923300
   14        0.0000000000
   15       -0.1118149600
   16       -0.0544796600
   17       -0.0000000000
   18        0.3769424700
   19        0.1836578800
   20        0.0000000000
   21        0.2952310000
   22        0.1438455600
   23        0.0000000000
   24        0.0000000000
   25        0.0000000000
   26       -0.0405964300
   27       -0.0197798200
   28        0.0000000000
   29        0.0000000000
   30        0.0000000000
   31        0.0000000000
   32        0.0726060400
   33        0.0353758800
   34        0.0000000000
   35        0.0000000000
   36       -0.0000000000
   37       -0.0000000000
   38       -0.0000000000
   39        0.0000000000
   40        0.0000000000
   41        0.0000000000
   42       -0.0000000000
   43       -0.0000000000
   44        0.0000000000
   45        0.0000000000
   46        0.0416483100
   47        0.0202923300
   48        0.0000000000
   49       -0.1118149600
   50       -0.0544796600
   51       -0.0000000000
   52        0.3769424700
   53        0.1836578800
   54        0.0000000000
   55        0.2952310000
   56        0.1438455600
   57       -0.0000000000
   58       -0.0000000000
   59       -0.0000000000
   60        0.0405964300
   61        0.0197798200
   62       -0.0000000000
   63       -0.0000000000
   64       -0.0000000000
   65       -0.0000000000
   66       -0.0726060400
   67       -0.0353758800
   68       -0.0000000000
 Ene=          0.01169320
 Spin= Alpha
 Occup=        0.00000000
    1        0.0000000000
    2       -0.0000000000
    3        0.0000000000
    4       -0.0000000000
    5        0.0000000000
    6        0.0000000000
    7        0.0000000000
    8       -0.0000000000
    9       -0.0000000000
   10        0.0000000000
   11       -0.0000000000
   12        0.0202923300
   13       -0.0416483100
   14       -0.0000000000
   15       -0.0544796600
   16        0.1118149600
   17        0.0000000000
   18        0.1836578800
   19       -0.3769424700
   20       -0.0000000000
   21        0.1438455600
   22       -0.2952310000
   23       -0.0000000000
   24       -0.0000000000
   25       -0.0000000000
   26       -0.0197798200
   27        0.0405964300
   28        0.0000000000
   29       -0.0000000000
   30       -0.0000000000
   31       -0.0000000000
   32        0.0353758800
   33       -0.0726060400
   34       -0.0000000000
   35       -0.0000000000
   36        0.0000000000
   37        0.0000000000
   38        0.0000000000
   39       -0.0000000000
   40       -0.0000000000
   41       -0.0000000000
   42        0.0000000000
   43       -0.0000000000
   44        0.0000000000
   45       -0.0000000000
   46        0.0202923300
   47       -0.0416483100
   48       -0.0000000000
   49       -0.0544796600
   50        0.1118149600
   51        0.0000000000
   52        0.1836578800
   53       -0.3769424700
   54       -0.0000000000
   55        0.1438455600
   56       -0.2952310000
   57        0.0000000000
   58        0.0000000000
   59        0.0000000000
   60        0.0197798200
   61       -0.0405964300
   62       -0.0000000000
   63        0.0000000000
   64        0.0000000000
   65        0.0000000000
   66       -0.0353758800
   67        0.0726060400
   68        0.0000000000
 Ene=          0.01259020
 Spin= Alpha
 Occup=        0.00000000
    1        0.0060879100
    2        0.3112722700
    3        0.3937581000
    4       -1.3833972100
    5        0.8279004000
    6       -0.0395565700
    7        0.1014962300
    8       -0.0603815400
    9       -0.0004951900
   10       -0.0004703800
   11        0.8133393200
   12       -0.0000000000
   13       -0.0000000000
   14       -0.2066543900
   15       -0.0000000000
   16       -0.0000000000
   17        0.6484064700
   18        0.0000000000
   19        0.0000000000
   20       -0.8217086100
   21        0.0000000000
   22        0.0000000000
   23        0.2897934800
   24       -0.0588160300
   25       -0.0588160300
   26       -0.0000000000
   27       -0.0000000000
   28        0.0000000000
   29       -0.2050737700
   30       -0.1917080000
   31       -0.1917080000
   32       -0.0000000000
   33       -0.0000000000
   34       -0.0000000000
   35        0.0060879100
   36        0.3112722700
   37        0.3937581000
   38       -1.3833972100
   39        0.8279004000
   40       -0.0395565700
   41        0.1014962300
   42       -0.0603815400
   43       -0.0004951900
   44       -0.0004703800
   45       -0.8133393200
   46        0.0000000000
   47        0.0000000000
   48        0.2066543900
   49        0.0000000000
   50        0.0000000000
   51       -0.6484064700
   52       -0.0000000000
   53       -0.0000000000
   54        0.8217086100
   55        0.0000000000
   56        0.0000000000
   57        0.2897934800
   58       -0.0588160300
   59       -0.0588160300
   60       -0.0000000000
   61       -0.0000000000
   62       -0.0000000000
   63       -0.2050737700
   64       -0.1917080000
   65       -0.1917080000
   66       -0.0000000000
   67       -0.0000000000
   68        0.0000000000
 Ene=          0.01391450
 Spin= Alpha
 Occup=        0.00000000
    1       -0.0000000000
    2        0.0000000000
    3       -0.0000000000
    4        0.0000000000
    5       -0.0000000000
    6       -0.0000000000
    7       -0.0000000000
    8        0.0000000000
    9        0.0000000000
   10       -0.0000000000
   11        0.0000000000
   12        0.0742700100
   13        0.0339563800
   14        0.0000000000
   15       -0.0763698400
   16       -0.0349164300
   17       -0.0000000000
   18        0.0026537800
   19        0.0012133100
   20        0.0000000000
   21       -0.6556238200
   22       -0.2997523900
   23        0.0000000000
   24        0.0000000000
   25        0.0000000000
   26        0.0229640100
   27        0.0104991900
   28       -0.0000000000
   29        0.0000000000
   30        0.0000000000
   31        0.0000000000
   32       -0.0415189900
   33       -0.0189825600
   34        0.0000000000
   35        0.0000000000
   36       -0.0000000000
   37        0.0000000000
   38       -0.0000000000
   39        0.0000000000
   40       -0.0000000000
   41        0.0000000000
   42       -0.0000000000
   43        0.0000000000
   44       -0.0000000000
   45        0.0000000000
   46       -0.0742700100
   47       -0.0339563800
   48        0.0000000000
   49        0.0763698400
   50        0.0349164300
   51       -0.0000000000
   52       -0.0026537800
   53       -0.0012133100
   54        0.0000000000
   55        0.6556238200
   56        0.2997523900
   57       -0.0000000000
   58       -0.0000000000
   59       -0.0000000000
   60        0.0229640100
   61        0.0104991900
   62        0.0000000000
   63       -0.0000000000
   64       -0.0000000000
   65       -0.0000000000
   66       -0.0415189900
   67       -0.0189825600
   68       -0.0000000000
 Ene=          0.01391450
 Spin= Alpha
 Occup=        0.00000000
    1        0.0000000000
    2       -0.0000000000
    3        0.0000000000
    4        0.0000000000
    5       -0.0000000000
    6        0.0000000000
    7       -0.0000000000
    8       -0.0000000000
    9       -0.0000000000
   10       -0.0000000000
   11        0.0000000000
   12        0.0339563800
   13       -0.0742700100
   14       -0.0000000000
   15       -0.0349164300
   16        0.0763698400
   17        0.0000000000
   18        0.0012133100
   19       -0.0026537800
   20        0.0000000000
   21       -0.2997523900
   22        0.6556238200
   23        0.0000000000
   24       -0.0000000000
   25       -0.0000000000
   26        0.0104991900
   27       -0.0229640100
   28        0.0000000000
   29       -0.0000000000
   30       -0.0000000000
   31       -0.0000000000
   32       -0.0189825600
   33        0.0415189900
   34       -0.0000000000
   35       -0.0000000000
   36        0.0000000000
   37        0.0000000000
   38        0.0000000000
   39       -0.0000000000
   40        0.0000000000
   41       -0.0000000000
   42        0.0000000000
   43       -0.0000000000
   44        0.0000000000
   45       -0.0000000000
   46       -0.0339563800
   47        0.0742700100
   48       -0.0000000000
   49        0.0349164300
   50       -0.0763698400
   51        0.0000000000
   52       -0.0012133100
   53        0.0026537800
   54       -0.0000000000
   55        0.2997523900
   56       -0.6556238200
   57        0.0000000000
   58        0.0000000000
   59        0.0000000000
   60        0.0104991900
   61       -0.0229640100
   62       -0.0000000000
   63        0.0000000000
   64        0.0000000000
   65        0.0000000000
   66       -0.0189825600
   67        0.0415189900
   68       -0.0000000000
 Ene=          0.01790640
 Spin= Alpha
 Occup=        0.00000000
    1       -0.1837941600
    2       17.4846934300
    3       -2.7366721800
    4        1.6135801200
    5       -0.5473744600
    6        0.0519216300
    7       -0.0484756600
    8        0.0256330100
    9       -0.0004799900
   10        0.0002987600
   11       -0.0270848000
   12        0.0000000000
   13        0.0000000000
   14        8.6698510500
   15       -0.0000000000
   16       -0.0000000000
   17       -1.6442484400
   18       -0.0000000000
   19        0.0000000000
   20        0.7045984000
   21        0.0000000000
   22       -0.0000000000
   23       -0.0067037900
   24       -0.0067339800
   25       -0.0067339800
   26        0.0000000000
   27        0.0000000000
   28       -0.0000000000
   29        2.2532563400
   30        0.1013070600
   31        0.1013070600
   32       -0.0000000000
   33        0.0000000000
   34       -0.0000000000
   35        0.1837941600
   36      -17.4846934300
   37        2.7366721800
   38       -1.6135801200
   39        0.5473744600
   40       -0.0519216300
   41        0.0484756600
   42       -0.0256330100
   43        0.0004799900
   44       -0.0002987600
   45       -0.0270848000
   46       -0.0000000000
   47       -0.0000000000
   48        8.6698510500
   49        0.0000000000
   50        0.0000000000
   51       -1.6442484400
   52       -0.0000000000
   53       -0.0000000000
   54        0.7045984000
   55        0.0000000000
   56        0.0000000000
   57        0.0067037900
   58        0.0067339800
   59        0.0067339800
   60        0.0000000000
   61        0.0000000000
   62        0.0000000000
   63       -2.2532563400
   64       -0.1013070600
   65       -0.1013070600
   66       -0.0000000000
   67        0.0000000000
   68       -0.0000000000
 Ene=          0.01819150
 Spin= Alpha
 Occup=        0.00000000
    1       -0.0000000000
    2        0.0000000000
    3        0.0000000000
    4       -0.0000000000
    5        0.0000000000
    6       -0.0000000000
    7        0.0000000000
    8       -0.0000000000
    9        0.0000000000
   10       -0.0000000000
   11        0.0000000000
   12       -0.0762663100
   13        0.0100811100
   14        0.0000000000
   15        0.2202598400
   16       -0.0291146200
   17        0.0000000000
   18       -0.9298477100
   19        0.1229101200
   20       -0.0000000000
   21        0.9659320700
   22       -0.1276798600
   23        0.0000000000
   24        0.0000000000
   25        0.0000000000
   26        0.0626900000
   27       -0.0082865600
   28        0.0000000000
   29        0.0000000000
   30        0.0000000000
   31        0.0000000000
   32       -0.1192981400
   33        0.0157691900
   34       -0.0000000000
   35        0.0000000000
   36       -0.0000000000
   37       -0.0000000000
   38        0.0000000000
   39       -0.0000000000
   40        0.0000000000
   41       -0.0000000000
   42        0.0000000000
   43        0.0000000000
   44        0.0000000000
   45        0.0000000000
   46       -0.0762663100
   47        0.0100811100
   48        0.0000000000
   49        0.2202598400
   50       -0.0291146200
   51        0.0000000000
   52       -0.9298477100
   53        0.1229101200
   54       -0.0000000000
   55        0.9659320700
   56       -0.1276798600
   57       -0.0000000000
   58       -0.0000000000
   59       -0.0000000000
   60       -0.0626900000
   61        0.0082865600
   62       -0.0000000000
   63       -0.0000000000
   64       -0.0000000000
   65       -0.0000000000
   66        0.1192981400
   67       -0.0157691900
   68        0.0000000000
 Ene=          0.01819150
 Spin= Alpha
 Occup=        0.00000000
    1       -0.0000000000
    2        0.0000000000
    3        0.0000000000
    4       -0.0000000000
    5        0.0000000000
    6       -0.0000000000
    7        0.0000000000
    8       -0.0000000000
    9       -0.0000000000
   10        0.0000000000
   11        0.0000000000
   12       -0.0100811100
   13       -0.0762663100
   14        0.0000000000
   15        0.0291146200
   16        0.2202598400
   17        0.0000000000
   18       -0.1229101200
   19       -0.9298477100
   20       -0.0000000000
   21        0.1276798600
   22        0.9659320700
   23        0.0000000000
   24        0.0000000000
   25        0.0000000000
   26        0.0082865600
   27        0.0626900000
   28       -0.0000000000
   29        0.0000000000
   30        0.0000000000
   31        0.0000000000
   32       -0.0157691900
   33       -0.1192981400
   34        0.0000000000
   35        0.0000000000
   36       -0.0000000000
   37       -0.0000000000
   38        0.0000000000
   39       -0.0000000000
   40        0.0000000000
   41        0.0000000000
   42       -0.0000000000
   43        0.0000000000
   44       -0.0000000000
   45        0.0000000000
   46       -0.0100811100
   47       -0.0762663100
   48        0.0000000000
   49        0.0291146200
   50        0.2202598400
   51        0.0000000000
   52       -0.1229101200
   53       -0.9298477100
   54       -0.0000000000
   55        0.1276798600
   56        0.9659320700
   57       -0.0000000000
   58       -0.0000000000
   59       -0.0000000000
   60       -0.0082865600
   61       -0.0626900000
   62        0.0000000000
   63       -0.0000000000
   64       -0.0000000000
   65       -0.0000000000
   66        0.0157691900
   67        0.1192981400
   68        0.0000000000
 Ene=          0.02167010
 Spin= Alpha
 Occup=        0.00000000
    1       -0.3172400700
    2       -0.0442877300
    3        0.1624883400
    4       -1.0363546600
    5        0.6716918900
    6        0.0228696600
    7        0.0703599300
    8       -0.0468139900
    9       -0.0016352400
   10       -0.0001912100
   11        0.4242191800
   12       -0.0000000000
   13       -0.0000000000
   14       -0.1057032800
   15       -0.0000000000
   16        0.0000000000
   17        0.1776574900
   18        0.0000000000
   19       -0.0000000000
   20        0.3155948700
   21       -0.0000000000
   22        0.0000000000
   23        0.1975124000
   24        0.0171859800
   25        0.0171859800
   26       -0.0000000000
   27       -0.0000000000
   28       -0.0000000000
   29        0.0288277500
   30        0.0396380400
   31        0.0396380400
   32       -0.0000000000
   33        0.0000000000
   34       -0.0000000000
   35       -0.3172400700
   36       -0.0442877300
   37        0.1624883400
   38       -1.0363546600
   39        0.6716918900
   40        0.0228696600
   41        0.0703599300
   42       -0.0468139900
   43       -0.0016352400
   44       -0.0001912100
   45       -0.4242191800
   46        0.0000000000
   47        0.0000000000
   48        0.1057032800
   49        0.0000000000
   50       -0.0000000000
   51       -0.1776574900
   52       -0.0000000000
   53        0.0000000000
   54       -0.3155948700
   55        0.0000000000
   56       -0.0000000000
   57        0.1975124000
   58        0.0171859800
   59        0.0171859800
   60        0.0000000000
   61       -0.0000000000
   62        0.0000000000
   63        0.0288277500
   64        0.0396380400
   65        0.0396380400
   66       -0.0000000000
   67       -0.0000000000
   68        0.0000000000
 Ene=          0.02362000
 Spin= Alpha
 Occup=        0.00000000
    1        0.0502119000
    2       -5.5512923500
    3        1.6829808800
    4       -1.7964712900
    5        0.8471016400
    6        0.0092890700
    7        0.0789094900
    8       -0.0508909000
    9       -0.0014718300
   10       -0.0002522300
   11        0.0400569900
   12       -0.0000000000
   13       -0.0000000000
   14       -2.7484347500
   15        0.0000000000
   16        0.0000000000
   17        0.8627623600
   18       -0.0000000000
   19       -0.0000000000
   20        0.3183204300
   21        0.0000000000
   22        0.0000000000
   23        0.0200664200
   24        0.0329675700
   25        0.0329675700
   26       -0.0000000000
   27       -0.0000000000
   28        0.0000000000
   29       -0.6595466700
   30       -0.0085272300
   31       -0.0085272300
   32        0.0000000000
   33        0.0000000000
   34       -0.0000000000
   35       -0.0502119000
   36        5.5512923500
   37       -1.6829808800
   38        1.7964712900
   39       -0.8471016400
   40       -0.0092890700
   41       -0.0789094900
   42        0.0508909000
   43        0.0014718300
   44        0.0002522300
   45        0.0400569900
   46        0.0000000000
   47        0.0000000000
   48       -2.7484347500
   49       -0.0000000000
   50       -0.0000000000
   51        0.8627623600
   52        0.0000000000
   53        0.0000000000
   54        0.3183204300
   55       -0.0000000000
   56       -0.0000000000
   57       -0.0200664200
   58       -0.0329675700
   59       -0.0329675700
   60       -0.0000000000
   61       -0.0000000000
   62       -0.0000000000
   63        0.6595466700
   64        0.0085272300
   65        0.0085272300
   66        0.0000000000
   67        0.0000000000
   68        0.0000000000
 Ene=          0.02448180
 Spin= Alpha
 Occup=        0.00000000
    1        0.0000000000
    2       -0.0000000000
    3        0.0000000000
    4       -0.0000000000
    5        0.0000000000
    6       -0.0000000000
    7        0.0000000000
    8        0.0000000000
    9       -0.0000000000
   10        0.0000000000
   11        0.0000000000
   12        1.2497694700
   13       -2.6927267700
   14       -0.0000000000
   15       -0.3167389700
   16        0.6824390500
   17        0.0000000000
   18        0.6375993500
   19       -1.3737580200
   20       -0.0000000000
   21       -0.3409552300
   22        0.7346149100
   23        0.0000000000
   24       -0.0000000000
   25       -0.0000000000
   26        0.2944022600
   27       -0.6343128500
   28        0.0000000000
   29       -0.0000000000
   30       -0.0000000000
   31       -0.0000000000
   32       -0.0364271600
   33        0.0784851900
   34       -0.0000000000
   35       -0.0000000000
   36        0.0000000000
   37       -0.0000000000
   38        0.0000000000
   39       -0.0000000000
   40       -0.0000000000
   41        0.0000000000
   42        0.0000000000
   43       -0.0000000000
   44        0.0000000000
   45       -0.0000000000
   46       -1.2497694700
   47        2.6927267700
   48       -0.0000000000
   49        0.3167389700
   50       -0.6824390500
   51        0.0000000000
   52       -0.6375993500
   53        1.3737580200
   54        0.0000000000
   55        0.3409552300
   56       -0.7346149100
   57        0.0000000000
   58        0.0000000000
   59        0.0000000000
   60        0.2944022600
   61       -0.6343128500
   62       -0.0000000000
   63        0.0000000000
   64        0.0000000000
   65        0.0000000000
   66       -0.0364271600
   67        0.0784851900
   68        0.0000000000
 Ene=          0.02448180
 Spin= Alpha
 Occup=        0.00000000
    1       -0.0000000000
    2        0.0000000000
    3        0.0000000000
    4       -0.0000000000
    5        0.0000000000
    6        0.0000000000
    7        0.0000000000
    8       -0.0000000000
    9       -0.0000000000
   10       -0.0000000000
   11        0.0000000000
   12        2.6927267700
   13        1.2497694700
   14        0.0000000000
   15       -0.6824390500
   16       -0.3167389700