[Molden Format]
[Title]
 Molden2AIM, Version 3.1.0 (02/25/2015)           Time: Thu Oct 17 19:56:19 2024

[Atoms] AU
E+       1       4     0.00000000     0.00000000     0.00000000
E+       2       4    57.80000000     0.00000000     0.00000000
[GTO]
    1 0
 S   1 1.0
    0.1000000000D-03      0.1000000000D+01
 S   1 1.0
    0.3000000000D-03      0.1000000000D+01
 S   1 1.0
    0.9000000000D-03      0.1000000000D+01
 S   1 1.0
    0.2700000000D-02      0.1000000000D+01
 S   1 1.0
    0.8100000000D-02      0.1000000000D+01
 S   1 1.0
    0.2430000000D-01      0.1000000000D+01
 S   1 1.0
    0.7290000000D-01      0.1000000000D+01
 S   1 1.0
    0.2187000000D+00      0.1000000000D+01
 S   1 1.0
    0.6561000000D+00      0.1000000000D+01
 S   1 1.0
    0.1968300000D+01      0.1000000000D+01
 P   1 1.0
    0.1000000000D-03      0.1000000000D+01
 P   1 1.0
    0.3000000000D-03      0.1000000000D+01
 P   1 1.0
    0.9000000000D-03      0.1000000000D+01
 P   1 1.0
    0.2700000000D-02      0.1000000000D+01
 D   1 1.0
    0.1000000000D-03      0.1000000000D+01
 D   1 1.0
    0.3000000000D-03      0.1000000000D+01

    2 0
 S   1 1.0
    0.1000000000D-03      0.1000000000D+01
 S   1 1.0
    0.3000000000D-03      0.1000000000D+01
 S   1 1.0
    0.9000000000D-03      0.1000000000D+01
 S   1 1.0
    0.2700000000D-02      0.1000000000D+01
 S   1 1.0
    0.8100000000D-02      0.1000000000D+01
 S   1 1.0
    0.2430000000D-01      0.1000000000D+01
 S   1 1.0
    0.7290000000D-01      0.1000000000D+01
 S   1 1.0
    0.2187000000D+00      0.1000000000D+01
 S   1 1.0
    0.6561000000D+00      0.1000000000D+01
 S   1 1.0
    0.1968300000D+01      0.1000000000D+01
 P   1 1.0
    0.1000000000D-03      0.1000000000D+01
 P   1 1.0
    0.3000000000D-03      0.1000000000D+01
 P   1 1.0
    0.9000000000D-03      0.1000000000D+01
 P   1 1.0
    0.2700000000D-02      0.1000000000D+01
 D   1 1.0
    0.1000000000D-03      0.1000000000D+01
 D   1 1.0
    0.3000000000D-03      0.1000000000D+01


[MO]
 Ene=          0.00439736
 Spin= Alpha
 Occup=        1.00000000
    1       -0.4416278400
    2       -0.2141586300
    3        0.6964677900
    4       -0.1332026600
    5        0.1375934100
    6        0.0678600900
    7        0.0567313900
    8       -0.0434641800
    9       -0.0025122000
   10       -0.0000222600
   11        0.4582891500
   12       -0.0000000000
   13       -0.0000000000
   14       -0.1760467500
   15       -0.0000000000
   16       -0.0000000000
   17        0.3249373500
   18        0.0000000000
   19        0.0000000000
   20        0.1138600500
   21       -0.0000000000
   22       -0.0000000000
   23        0.2506524700
   24        0.0265556400
   25        0.0265556400
   26       -0.0000000000
   27       -0.0000000000
   28        0.0000000000
   29        0.0723339000
   30        0.0903935500
   31        0.0903935500
   32       -0.0000000000
   33       -0.0000000000
   34       -0.0000000000
   35       -0.4416278400
   36       -0.2141586300
   37        0.6964677900
   38       -0.1332026600
   39        0.1375934100
   40        0.0678600900
   41        0.0567313900
   42       -0.0434641800
   43       -0.0025122000
   44       -0.0000222600
   45       -0.4582891500
   46        0.0000000000
   47        0.0000000000
   48        0.1760467500
   49        0.0000000000
   50        0.0000000000
   51       -0.3249373500
   52       -0.0000000000
   53       -0.0000000000
   54       -0.1138600500
   55       -0.0000000000
   56        0.0000000000
   57        0.2506524700
   58        0.0265556400
   59        0.0265556400
   60       -0.0000000000
   61       -0.0000000000
   62       -0.0000000000
   63        0.0723339000
   64        0.0903935500
   65        0.0903935500
   66       -0.0000000000
   67       -0.0000000000
   68        0.0000000000
 Ene=          0.00621364
 Spin= Alpha
 Occup=        0.00000000
    1       -0.0198405900
    2        0.7597485300
    3        0.0545148500
    4        0.4265436600
    5        0.0906420600
    6        0.1903137700
    7        0.0893590600
    8       -0.0773093000
    9       -0.0061627700
   10        0.0002021800
   11        0.0391325200
   12        0.0000000000
   13        0.0000000000
   14        0.5319460300
   15       -0.0000000000
   16       -0.0000000000
   17       -0.1272599200
   18        0.0000000000
   19        0.0000000000
   20        0.3202805900
   21       -0.0000000000
   22       -0.0000000000
   23        0.0307951600
   24        0.0243255800
   25        0.0243255800
   26        0.0000000000
   27        0.0000000000
   28       -0.0000000000
   29        0.2211129200
   30        0.0654854600
   31        0.0654854600
   32       -0.0000000000
   33        0.0000000000
   34        0.0000000000
   35        0.0198405900
   36       -0.7597485300
   37       -0.0545148500
   38       -0.4265436600
   39       -0.0906420600
   40       -0.1903137700
   41       -0.0893590600
   42        0.0773093000
   43        0.0061627700
   44       -0.0002021800
   45        0.0391325200
   46       -0.0000000000
   47       -0.0000000000
   48        0.5319460300
   49        0.0000000000
   50        0.0000000000
   51       -0.1272599200
   52       -0.0000000000
   53       -0.0000000000
   54        0.3202805900
   55        0.0000000000
   56        0.0000000000
   57       -0.0307951600
   58       -0.0243255800
   59       -0.0243255800
   60        0.0000000000
   61        0.0000000000
   62       -0.0000000000
   63       -0.2211129200
   64       -0.0654854600
   65       -0.0654854600
   66        0.0000000000
   67       -0.0000000000
   68        0.0000000000
 Ene=          0.00823126
 Spin= Alpha
 Occup=        0.00000000
    1        0.4116273200
    2        0.0834142300
    3       -0.7061012400
    4        0.7652094300
    5        0.0572232000
    6        0.2169261400
    7        0.0855194000
    8       -0.0775740200
    9       -0.0068055100
   10        0.0002897800
   11       -0.6165919200
   12        0.0000000000
   13        0.0000000000
   14        0.2443551500
   15       -0.0000000000
   16       -0.0000000000
   17       -0.5133918900
   18        0.0000000000
   19        0.0000000000
   20        0.3125217400
   21       -0.0000000000
   22       -0.0000000000
   23       -0.3142711600
   24       -0.0089453700
   25       -0.0089453700
   26       -0.0000000000
   27        0.0000000000
   28        0.0000000000
   29        0.0058536300
   30       -0.0296178200
   31       -0.0296178200
   32        0.0000000000
   33        0.0000000000
   34       -0.0000000000
   35        0.4116273200
   36        0.0834142300
   37       -0.7061012400
   38        0.7652094300
   39        0.0572232000
   40        0.2169261400
   41        0.0855194000
   42       -0.0775740200
   43       -0.0068055100
   44        0.0002897800
   45        0.6165919200
   46       -0.0000000000
   47       -0.0000000000
   48       -0.2443551500
   49       -0.0000000000
   50        0.0000000000
   51        0.5133918900
   52        0.0000000000
   53       -0.0000000000
   54       -0.3125217400
   55       -0.0000000000
   56        0.0000000000
   57       -0.3142711600
   58       -0.0089453700
   59       -0.0089453700
   60        0.0000000000
   61        0.0000000000
   62        0.0000000000
   63        0.0058536300
   64       -0.0296178200
   65       -0.0296178200
   66        0.0000000000
   67        0.0000000000
   68       -0.0000000000
 Ene=          0.01458470
 Spin= Alpha
 Occup=        0.00000000
    1       -0.0189903900
    2       -2.5968374000
    3        0.9153888500
    4        0.1122570900
    5       -0.5580499200
    6       -0.0963713000
    7       -0.1120898400
    8        0.0814780600
    9        0.0040733300
   10        0.0001436000
   11        0.1194707800
   12        0.0000000000
   13        0.0000000000
   14       -1.4707293500
   15       -0.0000000000
   16       -0.0000000000
   17        0.3062777600
   18        0.0000000000
   19        0.0000000000
   20        0.3539846600
   21       -0.0000000000
   22        0.0000000000
   23        0.1000918100
   24        0.0781116600
   25        0.0781116600
   26        0.0000000000
   27        0.0000000000
   28        0.0000000000
   29       -0.2944819000
   30        0.1372772400
   31        0.1372772400
   32       -0.0000000000
   33        0.0000000000
   34        0.0000000000
   35        0.0189903900
   36        2.5968374000
   37       -0.9153888500
   38       -0.1122570900
   39        0.5580499200
   40        0.0963713000
   41        0.1120898400
   42       -0.0814780600
   43       -0.0040733300
   44       -0.0001436000
   45        0.1194707800
   46       -0.0000000000
   47       -0.0000000000
   48       -1.4707293500
   49        0.0000000000
   50        0.0000000000
   51        0.3062777600
   52        0.0000000000
   53       -0.0000000000
   54        0.3539846600
   55       -0.0000000000
   56        0.0000000000
   57       -0.1000918100
   58       -0.0781116600
   59       -0.0781116600
   60        0.0000000000
   61        0.0000000000
   62       -0.0000000000
   63        0.2944819000
   64       -0.1372772400
   65       -0.1372772400
   66       -0.0000000000
   67       -0.0000000000
   68       -0.0000000000
 Ene=          0.01687080
 Spin= Alpha
 Occup=        0.00000000
    1       -0.0000000000
    2        0.0000000000
    3        0.0000000000
    4        0.0000000000
    5       -0.0000000000
    6       -0.0000000000
    7       -0.0000000000
    8        0.0000000000
    9        0.0000000000
   10       -0.0000000000
   11        0.0000000000
   12       -0.0401709000
   13       -0.0540243300
   14        0.0000000000
   15        0.1002884600
   16        0.1348741900
   17       -0.0000000000
   18       -0.3698443900
   19       -0.4973898300
   20        0.0000000000
   21       -0.0715832700
   22       -0.0962696500
   23        0.0000000000
   24        0.0000000000
   25        0.0000000000
   26        0.0507747700
   27        0.0682850800
   28        0.0000000000
   29        0.0000000000
   30        0.0000000000
   31        0.0000000000
   32       -0.0796963500
   33       -0.1071806300
   34       -0.0000000000
   35       -0.0000000000
   36       -0.0000000000
   37        0.0000000000
   38        0.0000000000
   39       -0.0000000000
   40       -0.0000000000
   41       -0.0000000000
   42        0.0000000000
   43        0.0000000000
   44       -0.0000000000
   45        0.0000000000
   46       -0.0401709000
   47       -0.0540243300
   48        0.0000000000
   49        0.1002884600
   50        0.1348741900
   51       -0.0000000000
   52       -0.3698443900
   53       -0.4973898300
   54       -0.0000000000
   55       -0.0715832700
   56       -0.0962696500
   57       -0.0000000000
   58       -0.0000000000
   59       -0.0000000000
   60       -0.0507747700
   61       -0.0682850800
   62       -0.0000000000
   63       -0.0000000000
   64       -0.0000000000
   65       -0.0000000000
   66        0.0796963500
   67        0.1071806300
   68        0.0000000000
 Ene=          0.01687080
 Spin= Alpha
 Occup=        0.00000000
    1       -0.0000000000
    2        0.0000000000
    3        0.0000000000
    4        0.0000000000
    5       -0.0000000000
    6       -0.0000000000
    7       -0.0000000000
    8        0.0000000000
    9       -0.0000000000
   10        0.0000000000
   11        0.0000000000
   12        0.0540243300
   13       -0.0401709000
   14        0.0000000000
   15       -0.1348741900
   16        0.1002884600
   17       -0.0000000000
   18        0.4973898300
   19       -0.3698443900
   20        0.0000000000
   21        0.0962696500
   22       -0.0715832700
   23        0.0000000000
   24        0.0000000000
   25        0.0000000000
   26       -0.0682850800
   27        0.0507747700
   28       -0.0000000000
   29        0.0000000000
   30        0.0000000000
   31        0.0000000000
   32        0.1071806300
   33       -0.0796963500
   34        0.0000000000
   35       -0.0000000000
   36       -0.0000000000
   37        0.0000000000
   38       -0.0000000000
   39        0.0000000000
   40       -0.0000000000
   41        0.0000000000
   42       -0.0000000000
   43        0.0000000000
   44       -0.0000000000
   45        0.0000000000
   46        0.0540243300
   47       -0.0401709000
   48        0.0000000000
   49       -0.1348741900
   50        0.1002884600
   51       -0.0000000000
   52        0.4973898300
   53       -0.3698443900
   54        0.0000000000
   55        0.0962696500
   56       -0.0715832700
   57        0.0000000000
   58       -0.0000000000
   59       -0.0000000000
   60        0.0682850800
   61       -0.0507747700
   62        0.0000000000
   63       -0.0000000000
   64        0.0000000000
   65        0.0000000000
   66       -0.1071806300
   67        0.0796963500
   68        0.0000000000
 Ene=          0.01718770
 Spin= Alpha
 Occup=        0.00000000
    1       -0.6537193300
    2       -0.4623597600
    3        0.1453976600
    4        1.0590406900
    5       -0.8301289200
    6       -0.0045114600
    7       -0.1183606100
    8        0.0758822600
    9        0.0018766000
   10        0.0004098800
   11       -0.1690951000
   12        0.0000000000
   13        0.0000000000
   14       -0.0061947900
   15        0.0000000000
   16       -0.0000000000
   17       -0.4711920600
   18        0.0000000000
   19        0.0000000000
   20        0.7652903100
   21        0.0000000000
   22        0.0000000000
   23        0.0349509400
   24        0.1076972200
   25        0.1076972200
   26       -0.0000000000
   27        0.0000000000
   28        0.0000000000
   29        0.2419529000
   30        0.3429706500
   31        0.3429706500
   32        0.0000000000
   33       -0.0000000000
   34       -0.0000000000
   35       -0.6537193300
   36       -0.4623597600
   37        0.1453976600
   38        1.0590406900
   39       -0.8301289200
   40       -0.0045114600
   41       -0.1183606100
   42        0.0758822600
   43        0.0018766000
   44        0.0004098800
   45        0.1690951000
   46       -0.0000000000
   47       -0.0000000000
   48        0.0061947900
   49        0.0000000000
   50        0.0000000000
   51        0.4711920600
   52        0.0000000000
   53        0.0000000000
   54       -0.7652903100
   55        0.0000000000
   56        0.0000000000
   57        0.0349509400
   58        0.1076972200
   59        0.1076972200
   60        0.0000000000
   61        0.0000000000
   62       -0.0000000000
   63        0.2419529000
   64        0.3429706500
   65        0.3429706500
   66        0.0000000000
   67       -0.0000000000
   68        0.0000000000
 Ene=          0.01958890
 Spin= Alpha
 Occup=        0.00000000
    1       -0.0000000000
    2        0.0000000000
    3       -0.0000000000
    4        0.0000000000
    5       -0.0000000000
    6        0.0000000000
    7       -0.0000000000
    8        0.0000000000
    9       -0.0000000000
   10        0.0000000000
   11        0.0000000000
   12       -0.0079029700
   13       -0.1642545900
   14        0.0000000000
   15        0.0005365400
   16        0.0111514000
   17       -0.0000000000
   18       -0.0066459100
   19       -0.1381280300
   20        0.0000000000
   21       -0.0302298100
   22       -0.6282935100
   23        0.0000000000
   24        0.0000000000
   25        0.0000000000
   26       -0.0016992500
   27       -0.0353169700
   28       -0.0000000000
   29        0.0000000000
   30        0.0000000000
   31        0.0000000000
   32       -0.0019017400
   33       -0.0395255200
   34        0.0000000000
   35       -0.0000000000
   36       -0.0000000000
   37        0.0000000000
   38       -0.0000000000
   39        0.0000000000
   40       -0.0000000000
   41        0.0000000000
   42       -0.0000000000
   43       -0.0000000000
   44        0.0000000000
   45       -0.0000000000
   46        0.0079029700
   47        0.1642545900
   48        0.0000000000
   49       -0.0005365400
   50       -0.0111514000
   51       -0.0000000000
   52        0.0066459100
   53        0.1381280300
   54        0.0000000000
   55        0.0302298100
   56        0.6282935100
   57        0.0000000000
   58       -0.0000000000
   59       -0.0000000000
   60       -0.0016992500
   61       -0.0353169700
   62        0.0000000000
   63       -0.0000000000
   64       -0.0000000000
   65       -0.0000000000
   66       -0.0019017400
   67       -0.0395255200
   68        0.0000000000
 Ene=          0.01958890
 Spin= Alpha
 Occup=        0.00000000
    1       -0.0000000000
    2        0.0000000000
    3        0.0000000000
    4       -0.0000000000
    5        0.0000000000
    6       -0.0000000000
    7        0.0000000000
    8        0.0000000000
    9       -0.0000000000
   10        0.0000000000
   11        0.0000000000
   12        0.1642545900
   13       -0.0079029700
   14        0.0000000000
   15       -0.0111514000
   16        0.0005365400
   17        0.0000000000
   18        0.1381280300
   19       -0.0066459100
   20       -0.0000000000
   21        0.6282935100
   22       -0.0302298100
   23        0.0000000000
   24        0.0000000000
   25        0.0000000000
   26        0.0353169700
   27       -0.0016992500
   28        0.0000000000
   29        0.0000000000
   30        0.0000000000
   31        0.0000000000
   32        0.0395255200
   33       -0.0019017400
   34       -0.0000000000
   35        0.0000000000
   36       -0.0000000000
   37       -0.0000000000
   38        0.0000000000
   39       -0.0000000000
   40        0.0000000000
   41       -0.0000000000
   42        0.0000000000
   43       -0.0000000000
   44        0.0000000000
   45       -0.0000000000
   46       -0.1642545900
   47        0.0079029700
   48        0.0000000000
   49        0.0111514000
   50       -0.0005365400
   51        0.0000000000
   52       -0.1381280300
   53        0.0066459100
   54       -0.0000000000
   55       -0.6282935100
   56        0.0302298100
   57        0.0000000000
   58       -0.0000000000
   59       -0.0000000000
   60        0.0353169700
   61       -0.0016992500
   62       -0.0000000000
   63       -0.0000000000
   64       -0.0000000000
   65       -0.0000000000
   66        0.0395255200
   67       -0.0019017400
   68        0.0000000000
 Ene=          0.02096390
 Spin= Alpha
 Occup=        0.00000000
    1        0.0497919000
    2       -7.7115891800
    3        2.3435778700
    4       -1.7740619800
    5        0.6989086300
    6       -0.0723445200
    7        0.0699674200
    8       -0.0372848000
    9        0.0006629800
   10       -0.0004283600
   11        0.0516061400
   12        0.0000000000
   13        0.0000000000
   14       -4.7966991600
   15       -0.0000000000
   16       -0.0000000000
   17        1.5230038800
   18        0.0000000000
   19        0.0000000000
   20       -0.7192757600
   21       -0.0000000000
   22       -0.0000000000
   23        0.0321222700
   24        0.0467134400
   25        0.0467134400
   26        0.0000000000
   27        0.0000000000
   28        0.0000000000
   29       -1.4069324100
   30       -0.0499542500
   31       -0.0499542500
   32       -0.0000000000
   33       -0.0000000000
   34        0.0000000000
   35       -0.0497919000
   36        7.7115891800
   37       -2.3435778700
   38        1.7740619800
   39       -0.6989086300
   40        0.0723445200
   41       -0.0699674200
   42        0.0372848000
   43       -0.0006629800
   44        0.0004283600
   45        0.0516061400
   46       -0.0000000000
   47       -0.0000000000
   48       -4.7966991600
   49        0.0000000000
   50        0.0000000000
   51        1.5230038800
   52        0.0000000000
   53       -0.0000000000
   54       -0.7192757600
   55       -0.0000000000
   56        0.0000000000
   57       -0.0321222700
   58       -0.0467134400
   59       -0.0467134400
   60        0.0000000000
   61        0.0000000000
   62       -0.0000000000
   63        1.4069324100
   64        0.0499542500
   65        0.0499542500
   66       -0.0000000000
   67       -0.0000000000
   68        0.0000000000
 Ene=          0.02289880
 Spin= Alpha
 Occup=        0.00000000
    1       -0.0000000000
    2       -0.0000000000
    3        0.0000000000
    4        0.0000000000
    5       -0.0000000000
    6        0.0000000000
    7       -0.0000000000
    8        0.0000000000
    9       -0.0000000000
   10        0.0000000000
   11        0.0000000000
   12        0.0273071700
   13       -0.0599149900
   14        0.0000000000
   15       -0.0709681700
   16        0.1557120800
   17       -0.0000000000
   18        0.3310946900
   19       -0.7264587100
   20        0.0000000000
   21       -0.4143433500
   22        0.9091155700
   23        0.0000000000
   24        0.0000000000
   25        0.0000000000
   26       -0.0337108800
   27        0.0739654300
   28       -0.0000000000
   29        0.0000000000
   30        0.0000000000
   31        0.0000000000
   32        0.0530800300
   33       -0.1164635200
   34        0.0000000000
   35       -0.0000000000
   36       -0.0000000000
   37        0.0000000000
   38       -0.0000000000
   39        0.0000000000
   40       -0.0000000000
   41        0.0000000000
   42       -0.0000000000
   43        0.0000000000
   44        0.0000000000
   45       -0.0000000000
   46        0.0273071700
   47       -0.0599149900
   48        0.0000000000
   49       -0.0709681700
   50        0.1557120800
   51       -0.0000000000
   52        0.3310946900
   53       -0.7264587100
   54        0.0000000000
   55       -0.4143433500
   56        0.9091155700
   57        0.0000000000
   58       -0.0000000000
   59        0.0000000000
   60        0.0337108800
   61       -0.0739654300
   62        0.0000000000
   63       -0.0000000000
   64       -0.0000000000
   65       -0.0000000000
   66       -0.0530800300
   67        0.1164635200
   68        0.0000000000
 Ene=          0.02289880
 Spin= Alpha
 Occup=        0.00000000
    1       -0.0000000000
    2        0.0000000000
    3        0.0000000000
    4       -0.0000000000
    5        0.0000000000
    6        0.0000000000
    7        0.0000000000
    8       -0.0000000000
    9       -0.0000000000
   10       -0.0000000000
   11        0.0000000000
   12       -0.0599149900
   13       -0.0273071700
   14        0.0000000000
   15        0.1557120800
   16        0.0709681700
   17        0.0000000000
   18       -0.7264587100
   19       -0.3310946900
   20       -0.0000000000
   21        0.9091155700
   22        0.4143433500
   23        0.0000000000
   24        0.0000000000
   25        0.0000000000
   26        0.0739654300
   27        0.0337108800
   28       -0.0000000000
   29        0.0000000000
   30        0.0000000000
   31        0.0000000000
   32       -0.1164635200
   33       -0.0530800300
   34        0.0000000000
   35        0.0000000000
   36       -0.0000000000
   37       -0.0000000000
   38        0.0000000000
   39       -0.0000000000
   40        0.0000000000
   41       -0.0000000000
   42        0.0000000000
   43        0.0000000000
   44       -0.0000000000
   45        0.0000000000
   46       -0.0599149900
   47       -0.0273071700
   48        0.0000000000
   49        0.1557120800
   50        0.0709681700
   51        0.0000000000
   52       -0.7264587100
   53       -0.3310946900
   54       -0.0000000000
   55        0.9091155700
   56        0.4143433500
   57       -0.0000000000
   58       -0.0000000000
   59       -0.0000000000
   60       -0.0739654300
   61       -0.0337108800
   62        0.0000000000
   63       -0.0000000000
   64       -0.0000000000
   65       -0.0000000000
   66        0.1164635200
   67        0.0530800300
   68       -0.0000000000
 Ene=          0.02732160
 Spin= Alpha
 Occup=        0.00000000
    1       -0.7682575100
    2       -0.1102573700
    3        0.1201477400
    4       -0.7568823200
    5        0.5623523900
    6        0.0192500600
    7        0.0621905300
    8       -0.0414300500
    9       -0.0014580700
   10       -0.0001666900
   11        0.7518585200
   12       -0.0000000000
   13       -0.0000000000
   14       -0.2948199400
   15        0.0000000000
   16        0.0000000000
   17        0.3454583300
   18        0.0000000000
   19       -0.0000000000
   20        0.2162967000
   21       -0.0000000000
   22        0.0000000000
   23        0.4331558000
   24        0.0497898600
   25        0.0497898600
   26       -0.0000000000
   27       -0.0000000000
   28        0.0000000000
   29        0.0471902100
   30        0.1329303700
   31        0.1329303700
   32        0.0000000000
   33        0.0000000000
   34       -0.0000000000
   35       -0.7682575100
   36       -0.1102573700
   37        0.1201477400
   38       -0.7568823200
   39        0.5623523900
   40        0.0192500600
   41        0.0621905300
   42       -0.0414300500
   43       -0.0014580700
   44       -0.0001666900
   45       -0.7518585200
   46        0.0000000000
   47        0.0000000000
   48        0.2948199400
   49       -0.0000000000
   50       -0.0000000000
   51       -0.3454583300
   52       -0.0000000000
   53        0.0000000000
   54       -0.2162967000
   55        0.0000000000
   56       -0.0000000000
   57        0.4331558000
   58        0.0497898600
   59        0.0497898600
   60       -0.0000000000
   61       -0.0000000000
   62       -0.0000000000
   63        0.0471902100
   64        0.1329303700
   65        0.1329303700
   66        0.0000000000
   67        0.0000000000
   68        0.0000000000
 Ene=          0.02788080
 Spin= Alpha
 Occup=        0.00000000
    1       -0.0000000000
    2       -0.0000000000
    3        0.0000000000
    4       -0.0000000000
    5        0.0000000000
    6        0.0000000000
    7        0.0000000000
    8       -0.0000000000
    9       -0.0000000000
   10        0.0000000000
   11        0.0000000000
   12       -1.1498774700
   13        1.1335225300
   14       -0.0000000000
   15        0.3544639200
   16       -0.3494223100
   17        0.0000000000
   18       -0.9980311900
   19        0.9838359900
   20        0.0000000000
   21        0.6248197500
   22       -0.6159328100
   23        0.0000000000
   24       -0.0000000000
   25       -0.0000000000
   26       -0.3009734500
   27        0.2966926500
   28       -0.0000000000
   29       -0.0000000000
   30        0.0000000000
   31        0.0000000000
   32       -0.0005425200
   33        0.0005348000
   34       -0.0000000000
   35       -0.0000000000
   36        0.0000000000
   37       -0.0000000000
   38        0.0000000000
   39       -0.0000000000
   40        0.0000000000
   41       -0.0000000000
   42        0.0000000000
   43       -0.0000000000
   44        0.0000000000
   45       -0.0000000000
   46        1.1498774700
   47       -1.1335225300
   48       -0.0000000000
   49       -0.3544639200
   50        0.3494223100
   51        0.0000000000
   52        0.9980311900
   53       -0.9838359900
   54        0.0000000000
   55       -0.6248197500
   56        0.6159328100
   57        0.0000000000
   58        0.0000000000
   59        0.0000000000
   60       -0.3009734500
   61        0.2966926500
   62        0.0000000000
   63        0.0000000000
   64        0.0000000000
   65        0.0000000000
   66       -0.0005425200
   67        0.0005348000
   68       -0.0000000000
 Ene=          0.02788080
 Spin= Alpha
 Occup=        0.00000000
    1       -0.0000000000
    2       -0.0000000000
    3       -0.0000000000
    4        0.0000000000
    5       -0.0000000000
    6        0.0000000000
    7       -0.0000000000
    8        0.0000000000
    9       -0.0000000000
   10        0.0000000000
   11        0.0000000000
   12        1.1335225300
   13        1.1498774700
   14       -0.0000000000
   15       -0.3494223100
   16       -0.3544639200
   17        0.0000000000
   18        0.9838359900
   19        0.9980311900
   20       -0.0000000000
   21       -0.6159328100
   22       -0.6248197500
   23        0.0000000000
   24       -0.0000000000
   25       -0.0000000000
   26        0.2966926500
   27        0.3009734500
   28       -0.0000000000
   29       -0.0000000000
   30       -0.0000000000
   31       -0.0000000000
   32        0.0005348000
   33        0.0005425200
   34        0.0000000000
   35       -0.0000000000
   36        0.0000000000
   37       -0.0000000000
   38        0.0000000000
   39       -0.0000000000
   40        0.0000000000
   41       -0.0000000000
   42        0.0000000000
   43       -0.0000000000
   44        0.0000000000
   45       -0.0000000000
   46       -1.1335225300
   47       -1.1498774700
   48       -0.0000000000
   49        0.3494223100
   50        0.3544639200
   51        0.0000000000
   52       -0.9838359900
   53       -0.9980311900
   54        0.0000000000
   55        0.6159328100
   56        0.6248197500
   57        0.0000000000
   58        0.0000000000
   59        0.0000000000
   60        0.2966926500
   61        0.3009734500
   62        0.0000000000
   63        0.0000000000
   64        0.0000000000
   65        0.0000000000
   66        0.0005348000
   67        0.0005425200
   68       -0.0000000000
 Ene=          0.02893270
 Spin= Alpha
 Occup=        0.00000000
    1       -0.0233382500
    2        1.8778169500
    3       -0.6531705700
    4        1.3118509400
    5       -0.7373842600
    6       -0.0028209900
    7       -0.0735510700
    8        0.0469982600
    9        0.0012620500
   10        0.0002454700
   11        0.0162886100
   12        0.0000000000
   13       -0.0000000000
   14        1.2944471300
   15       -0.0000000000
   16       -0.0000000000