[Molden Format]
[Title]
 Molden2AIM, Version 3.1.0 (02/25/2015)           Time: Thu Oct 17 19:53:56 2024

[Atoms] AU
E+       1       4     0.00000000     0.00000000     0.00000000
E+       2       4    26.00000000     0.00000000     0.00000000
[GTO]
    1 0
 S   1 1.0
    0.1000000000D-03      0.1000000000D+01
 S   1 1.0
    0.3000000000D-03      0.1000000000D+01
 S   1 1.0
    0.9000000000D-03      0.1000000000D+01
 S   1 1.0
    0.2700000000D-02      0.1000000000D+01
 S   1 1.0
    0.8100000000D-02      0.1000000000D+01
 S   1 1.0
    0.2430000000D-01      0.1000000000D+01
 S   1 1.0
    0.7290000000D-01      0.1000000000D+01
 S   1 1.0
    0.2187000000D+00      0.1000000000D+01
 S   1 1.0
    0.6561000000D+00      0.1000000000D+01
 S   1 1.0
    0.1968300000D+01      0.1000000000D+01
 P   1 1.0
    0.1000000000D-03      0.1000000000D+01
 P   1 1.0
    0.3000000000D-03      0.1000000000D+01
 P   1 1.0
    0.9000000000D-03      0.1000000000D+01
 P   1 1.0
    0.2700000000D-02      0.1000000000D+01
 D   1 1.0
    0.1000000000D-03      0.1000000000D+01
 D   1 1.0
    0.3000000000D-03      0.1000000000D+01

    2 0
 S   1 1.0
    0.1000000000D-03      0.1000000000D+01
 S   1 1.0
    0.3000000000D-03      0.1000000000D+01
 S   1 1.0
    0.9000000000D-03      0.1000000000D+01
 S   1 1.0
    0.2700000000D-02      0.1000000000D+01
 S   1 1.0
    0.8100000000D-02      0.1000000000D+01
 S   1 1.0
    0.2430000000D-01      0.1000000000D+01
 S   1 1.0
    0.7290000000D-01      0.1000000000D+01
 S   1 1.0
    0.2187000000D+00      0.1000000000D+01
 S   1 1.0
    0.6561000000D+00      0.1000000000D+01
 S   1 1.0
    0.1968300000D+01      0.1000000000D+01
 P   1 1.0
    0.1000000000D-03      0.1000000000D+01
 P   1 1.0
    0.3000000000D-03      0.1000000000D+01
 P   1 1.0
    0.9000000000D-03      0.1000000000D+01
 P   1 1.0
    0.2700000000D-02      0.1000000000D+01
 D   1 1.0
    0.1000000000D-03      0.1000000000D+01
 D   1 1.0
    0.3000000000D-03      0.1000000000D+01


[MO]
 Ene=         -0.00313018
 Spin= Alpha
 Occup=        1.00000000
    1       -0.0602244500
    2        0.0402629300
    3        0.0230499000
    4        0.2763973300
    5        0.2106074200
    6        0.1701153900
    7        0.1076097400
    8       -0.0873553200
    9       -0.0059961900
   10        0.0000909700
   11        0.2763842100
   12        0.0000000000
   13        0.0000000000
   14       -0.0806503800
   15        0.0000000000
   16        0.0000000000
   17        0.0371117100
   18       -0.0000000000
   19       -0.0000000000
   20       -0.0165724000
   21       -0.0000000000
   22        0.0000000000
   23        0.0612908300
   24       -0.0017576400
   25       -0.0017576400
   26        0.0000000000
   27        0.0000000000
   28        0.0000000000
   29       -0.0333621000
   30       -0.0058762400
   31       -0.0058762400
   32        0.0000000000
   33       -0.0000000000
   34       -0.0000000000
   35       -0.0602244500
   36        0.0402629300
   37        0.0230499000
   38        0.2763973300
   39        0.2106074200
   40        0.1701153900
   41        0.1076097400
   42       -0.0873553200
   43       -0.0059961900
   44        0.0000909700
   45       -0.2763842100
   46       -0.0000000000
   47       -0.0000000000
   48        0.0806503800
   49       -0.0000000000
   50       -0.0000000000
   51       -0.0371117100
   52        0.0000000000
   53        0.0000000000
   54        0.0165724000
   55       -0.0000000000
   56       -0.0000000000
   57        0.0612908300
   58       -0.0017576400
   59       -0.0017576400
   60        0.0000000000
   61        0.0000000000
   62       -0.0000000000
   63       -0.0333621000
   64       -0.0058762400
   65       -0.0058762400
   66        0.0000000000
   67        0.0000000000
   68        0.0000000000
 Ene=         -0.00152902
 Spin= Alpha
 Occup=        0.00000000
    1        0.0011459000
    2        0.0054659700
    3        0.2917009700
    4        0.3603968900
    5        0.2330450700
    6        0.1935590300
    7        0.1142210900
    8       -0.0940357400
    9       -0.0067141100
   10        0.0001330200
   11       -0.0075889500
   12        0.0000000000
   13       -0.0000000000
   14       -0.0170128400
   15       -0.0000000000
   16        0.0000000000
   17        0.1478148200
   18        0.0000000000
   19       -0.0000000000
   20       -0.0698934100
   21       -0.0000000000
   22        0.0000000000
   23       -0.0170554400
   24       -0.0058732100
   25       -0.0058732100
   26        0.0000000000
   27       -0.0000000000
   28        0.0000000000
   29       -0.0246040200
   30       -0.0392457400
   31       -0.0392457400
   32       -0.0000000000
   33        0.0000000000
   34       -0.0000000000
   35       -0.0011459000
   36       -0.0054659700
   37       -0.2917009700
   38       -0.3603968900
   39       -0.2330450700
   40       -0.1935590300
   41       -0.1142210900
   42        0.0940357400
   43        0.0067141100
   44       -0.0001330200
   45       -0.0075889500
   46       -0.0000000000
   47        0.0000000000
   48       -0.0170128400
   49        0.0000000000
   50       -0.0000000000
   51        0.1478148200
   52       -0.0000000000
   53        0.0000000000
   54       -0.0698934100
   55        0.0000000000
   56       -0.0000000000
   57        0.0170554400
   58        0.0058732100
   59        0.0058732100
   60        0.0000000000
   61       -0.0000000000
   62        0.0000000000
   63        0.0246040200
   64        0.0392457400
   65        0.0392457400
   66       -0.0000000000
   67        0.0000000000
   68       -0.0000000000
 Ene=          0.00390487
 Spin= Alpha
 Occup=        0.00000000
    1       -0.8937443200
    2        0.1207473300
    3        1.1483220900
    4       -0.9159727000
    5        0.0297936800
    6       -0.1204145400
    7       -0.0302382700
    8        0.0320927200
    9        0.0035515000
   10       -0.0002232200
   11        2.9135067500
   12       -0.0000000000
   13       -0.0000000000
   14       -0.9379422700
   15        0.0000000000
   16        0.0000000000
   17        0.5137111500
   18       -0.0000000000
   19       -0.0000000000
   20       -0.0768199400
   21        0.0000000000
   22        0.0000000000
   23        0.6820131400
   24        0.0191599700
   25        0.0191599700
   26       -0.0000000000
   27       -0.0000000000
   28       -0.0000000000
   29       -0.2424039900
   30        0.0739696100
   31        0.0739696100
   32        0.0000000000
   33        0.0000000000
   34        0.0000000000
   35       -0.8937443200
   36        0.1207473300
   37        1.1483220900
   38       -0.9159727000
   39        0.0297936800
   40       -0.1204145400
   41       -0.0302382700
   42        0.0320927200
   43        0.0035515000
   44       -0.0002232200
   45       -2.9135067500
   46        0.0000000000
   47        0.0000000000
   48        0.9379422700
   49       -0.0000000000
   50       -0.0000000000
   51       -0.5137111500
   52        0.0000000000
   53        0.0000000000
   54        0.0768199400
   55       -0.0000000000
   56        0.0000000000
   57        0.6820131400
   58        0.0191599700
   59        0.0191599700
   60       -0.0000000000
   61       -0.0000000000
   62        0.0000000000
   63       -0.2424039900
   64        0.0739696100
   65        0.0739696100
   66        0.0000000000
   67        0.0000000000
   68       -0.0000000000
 Ene=          0.00442784
 Spin= Alpha
 Occup=        0.00000000
    1       -0.0000000000
    2        0.0000000000
    3       -0.0000000000
    4        0.0000000000
    5        0.0000000000
    6        0.0000000000
    7        0.0000000000
    8        0.0000000000
    9       -0.0000000000
   10        0.0000000000
   11        0.0000000000
   12        0.0288577800
   13       -0.0029091700
   14        0.0000000000
   15       -0.1067311400
   16        0.0107596300
   17       -0.0000000000
   18        0.4260218000
   19       -0.0429475300
   20       -0.0000000000
   21        0.2234084600
   22       -0.0225219500
   23        0.0000000000
   24       -0.0000000000
   25       -0.0000000000
   26        0.0275686100
   27       -0.0027792100
   28        0.0000000000
   29       -0.0000000000
   30       -0.0000000000
   31       -0.0000000000
   32        0.0064240700
   33       -0.0006476100
   34       -0.0000000000
   35       -0.0000000000
   36        0.0000000000
   37        0.0000000000
   38        0.0000000000
   39        0.0000000000
   40        0.0000000000
   41        0.0000000000
   42       -0.0000000000
   43        0.0000000000
   44       -0.0000000000
   45       -0.0000000000
   46        0.0288577800
   47       -0.0029091700
   48        0.0000000000
   49       -0.1067311400
   50        0.0107596300
   51       -0.0000000000
   52        0.4260218000
   53       -0.0429475300
   54       -0.0000000000
   55        0.2234084600
   56       -0.0225219500
   57        0.0000000000
   58        0.0000000000
   59        0.0000000000
   60       -0.0275686100
   61        0.0027792100
   62       -0.0000000000
   63        0.0000000000
   64       -0.0000000000
   65       -0.0000000000
   66       -0.0064240700
   67        0.0006476100
   68        0.0000000000
 Ene=          0.00442784
 Spin= Alpha
 Occup=        0.00000000
    1        0.0000000000
    2        0.0000000000
    3        0.0000000000
    4       -0.0000000000
    5        0.0000000000
    6       -0.0000000000
    7       -0.0000000000
    8        0.0000000000
    9        0.0000000000
   10        0.0000000000
   11       -0.0000000000
   12       -0.0029091700
   13       -0.0288577800
   14       -0.0000000000
   15        0.0107596300
   16        0.1067311400
   17        0.0000000000
   18       -0.0429475300
   19       -0.4260218000
   20       -0.0000000000
   21       -0.0225219500
   22       -0.2234084600
   23       -0.0000000000
   24        0.0000000000
   25        0.0000000000
   26       -0.0027792100
   27       -0.0275686100
   28       -0.0000000000
   29       -0.0000000000
   30        0.0000000000
   31        0.0000000000
   32       -0.0006476100
   33       -0.0064240700
   34        0.0000000000
   35        0.0000000000
   36        0.0000000000
   37        0.0000000000
   38       -0.0000000000
   39        0.0000000000
   40       -0.0000000000
   41       -0.0000000000
   42       -0.0000000000
   43        0.0000000000
   44       -0.0000000000
   45        0.0000000000
   46       -0.0029091700
   47       -0.0288577700
   48        0.0000000000
   49        0.0107596300
   50        0.1067311400
   51        0.0000000000
   52       -0.0429475300
   53       -0.4260218000
   54       -0.0000000000
   55       -0.0225219500
   56       -0.2234084600
   57       -0.0000000000
   58        0.0000000000
   59        0.0000000000
   60        0.0027792100
   61        0.0275686100
   62        0.0000000000
   63       -0.0000000000
   64        0.0000000000
   65        0.0000000000
   66        0.0006476100
   67        0.0064240700
   68       -0.0000000000
 Ene=          0.00694459
 Spin= Alpha
 Occup=        0.00000000
    1       -0.0165341100
    2        0.0021971800
    3        5.0020655300
    4       -0.1468544900
    5       -0.4264320800
    6       -0.0503447300
    7       -0.0796613500
    8        0.0563241700
    9        0.0025245000
   10        0.0001411900
   11        0.1152865900
   12        0.0000000000
   13       -0.0000000000
   14       -0.0027780300
   15       -0.0000000000
   16        0.0000000000
   17        1.4955822300
   18        0.0000000000
   19       -0.0000000000
   20       -0.0667344300
   21        0.0000000000
   22       -0.0000000000
   23        0.1212375600
   24        0.2107214300
   25        0.2107214300
   26        0.0000000000
   27       -0.0000000000
   28       -0.0000000000
   29        0.3141079500
   30        0.1599824300
   31        0.1599824300
   32       -0.0000000000
   33        0.0000000000
   34        0.0000000000
   35        0.0165341100
   36       -0.0021971800
   37       -5.0020655300
   38        0.1468544900
   39        0.4264320800
   40        0.0503447300
   41        0.0796613500
   42       -0.0563241700
   43       -0.0025245000
   44       -0.0001411900
   45        0.1152865900
   46       -0.0000000000
   47        0.0000000000
   48       -0.0027780300
   49        0.0000000000
   50       -0.0000000000
   51        1.4955822300
   52       -0.0000000000
   53        0.0000000000
   54       -0.0667344300
   55       -0.0000000000
   56        0.0000000000
   57       -0.1212375600
   58       -0.2107214300
   59       -0.2107214300
   60        0.0000000000
   61       -0.0000000000
   62       -0.0000000000
   63       -0.3141079500
   64       -0.1599824300
   65       -0.1599824300
   66       -0.0000000000
   67        0.0000000000
   68        0.0000000000
 Ene=          0.00723045
 Spin= Alpha
 Occup=        0.00000000
    1       -0.0000000000
    2        0.0000000000
    3        0.0000000000
    4        0.0000000000
    5       -0.0000000000
    6       -0.0000000000
    7       -0.0000000000
    8        0.0000000000
    9        0.0000000000
   10        0.0000000000
   11       -0.0000000000
   12       -0.1297554700
   13        6.3164919500
   14        0.0000000000
   15        0.0283775900
   16       -1.3814201500
   17       -0.0000000000
   18       -0.0114032100
   19        0.5551079500
   20       -0.0000000000
   21       -0.0138131900
   22        0.6724255300
   23       -0.0000000000
   24        0.0000000000
   25        0.0000000000
   26       -0.0168073900
   27        0.8181833700
   28       -0.0000000000
   29        0.0000000000
   30        0.0000000000
   31        0.0000000000
   32        0.0053903600
   33       -0.2624024400
   34        0.0000000000
   35        0.0000000000
   36       -0.0000000000
   37       -0.0000000000
   38        0.0000000000
   39        0.0000000000
   40        0.0000000000
   41        0.0000000000
   42       -0.0000000000
   43       -0.0000000000
   44        0.0000000000
   45        0.0000000000
   46        0.1297554700
   47       -6.3164919500
   48        0.0000000000
   49       -0.0283775900
   50        1.3814201500
   51        0.0000000000
   52        0.0114032100
   53       -0.5551079500
   54        0.0000000000
   55        0.0138131900
   56       -0.6724255300
   57       -0.0000000000
   58       -0.0000000000
   59       -0.0000000000
   60       -0.0168073900
   61        0.8181833700
   62        0.0000000000
   63       -0.0000000000
   64       -0.0000000000
   65       -0.0000000000
   66        0.0053903600
   67       -0.2624024400
   68       -0.0000000000
 Ene=          0.00723045
 Spin= Alpha
 Occup=        0.00000000
    1        0.0000000000
    2       -0.0000000000
    3       -0.0000000000
    4        0.0000000000
    5        0.0000000000
    6        0.0000000000
    7        0.0000000000
    8       -0.0000000000
    9       -0.0000000000
   10       -0.0000000000
   11       -0.0000000000
   12        6.3164919500
   13        0.1297554700
   14       -0.0000000000
   15       -1.3814201500
   16       -0.0283775900
   17       -0.0000000000
   18        0.5551079500
   19        0.0114032100
   20       -0.0000000000
   21        0.6724255300
   22        0.0138131900
   23       -0.0000000000
   24       -0.0000000000
   25       -0.0000000000
   26        0.8181833700
   27        0.0168073900
   28       -0.0000000000
   29       -0.0000000000
   30       -0.0000000000
   31       -0.0000000000
   32       -0.2624024400
   33       -0.0053903600
   34        0.0000000000
   35       -0.0000000000
   36        0.0000000000
   37        0.0000000000
   38        0.0000000000
   39       -0.0000000000
   40       -0.0000000000
   41       -0.0000000000
   42        0.0000000000
   43        0.0000000000
   44        0.0000000000
   45        0.0000000000
   46       -6.3164919500
   47       -0.1297554700
   48       -0.0000000000
   49        1.3814201500
   50        0.0283775900
   51       -0.0000000000
   52       -0.5551079500
   53       -0.0114032100
   54        0.0000000000
   55       -0.6724255300
   56       -0.0138131900
   57       -0.0000000000
   58        0.0000000000
   59        0.0000000000
   60        0.8181833700
   61        0.0168073900
   62        0.0000000000
   63        0.0000000000
   64        0.0000000000
   65        0.0000000000
   66       -0.2624024400
   67       -0.0053903600
   68       -0.0000000000
 Ene=          0.00729226
 Spin= Alpha
 Occup=        0.00000000
    1       -0.4051600800
    2        0.2317553200
    3        0.0276785300
    4       -0.5333655600
    5        0.1999128400
    6       -0.0151572900
    7        0.0211827500
    8       -0.0122575900
    9       -0.0000616100
   10       -0.0000999200
   11        1.6707592400
   12       -0.0000000000
   13        0.0000000000
   14       -0.4469287300
   15        0.0000000000
   16       -0.0000000000
   17        0.2110453900
   18        0.0000000000
   19        0.0000000000
   20        0.5900289900
   21        0.0000000000
   22        0.0000000000
   23        0.3764681900
   24       -0.0040774700
   25       -0.0040774700
   26       -0.0000000000
   27        0.0000000000
   28       -0.0000000000
   29       -0.1724943600
   30       -0.0230615800
   31       -0.0230615800
   32        0.0000000000
   33       -0.0000000000
   34        0.0000000000
   35       -0.4051600800
   36        0.2317553200
   37        0.0276785300
   38       -0.5333655600
   39        0.1999128400
   40       -0.0151572900
   41        0.0211827500
   42       -0.0122575900
   43       -0.0000616100
   44       -0.0000999200
   45       -1.6707592400
   46        0.0000000000
   47       -0.0000000000
   48        0.4469287300
   49       -0.0000000000
   50        0.0000000000
   51       -0.2110453900
   52       -0.0000000000
   53       -0.0000000000
   54       -0.5900289900
   55       -0.0000000000
   56       -0.0000000000
   57        0.3764681900
   58       -0.0040774700
   59       -0.0040774700
   60       -0.0000000000
   61        0.0000000000
   62        0.0000000000
   63       -0.1724943600
   64       -0.0230615800
   65       -0.0230615800
   66        0.0000000000
   67       -0.0000000000
   68       -0.0000000000
 Ene=          0.01104870
 Spin= Alpha
 Occup=        0.00000000
    1        0.0000000000
    2       -0.0000000000
    3       -0.0000000000
    4       -0.0000000000
    5       -0.0000000000
    6       -0.0000000000
    7       -0.0000000000
    8        0.0000000000
    9        0.0000000000
   10        0.0000000000
   11       -0.0000000000
   12       -0.0445188300
   13       -0.0215421100
   14        0.0000000000
   15        0.1646471700
   16        0.0796707200
   17       -0.0000000000
   18       -0.7744949100
   19       -0.3747684600
   20       -0.0000000000
   21        0.8109243000
   22        0.3923961900
   23       -0.0000000000
   24        0.0000000000
   25        0.0000000000
   26       -0.0310836600
   27       -0.0150410000
   28       -0.0000000000
   29        0.0000000000
   30        0.0000000000
   31        0.0000000000
   32       -0.0215215400
   33       -0.0104140100
   34        0.0000000000
   35        0.0000000000
   36       -0.0000000000
   37        0.0000000000
   38        0.0000000000
   39       -0.0000000000
   40        0.0000000000
   41        0.0000000000
   42       -0.0000000000
   43       -0.0000000000
   44        0.0000000000
   45        0.0000000000
   46       -0.0445188300
   47       -0.0215421100
   48       -0.0000000000
   49        0.1646471700
   50        0.0796707200
   51       -0.0000000000
   52       -0.7744949100
   53       -0.3747684600
   54       -0.0000000000
   55        0.8109243000
   56        0.3923961900
   57       -0.0000000000
   58       -0.0000000000
   59       -0.0000000000
   60        0.0310836600
   61        0.0150410000
   62        0.0000000000
   63        0.0000000000
   64       -0.0000000000
   65       -0.0000000000
   66        0.0215215400
   67        0.0104140100
   68        0.0000000000
 Ene=          0.01104870
 Spin= Alpha
 Occup=        0.00000000
    1        0.0000000000
    2        0.0000000000
    3        0.0000000000
    4        0.0000000000
    5       -0.0000000000
    6        0.0000000000
    7        0.0000000000
    8       -0.0000000000
    9       -0.0000000000
   10        0.0000000000
   11       -0.0000000000
   12        0.0215421100
   13       -0.0445188300
   14       -0.0000000000
   15       -0.0796707200
   16        0.1646471700
   17        0.0000000000
   18        0.3747684600
   19       -0.7744949100
   20        0.0000000000
   21       -0.3923961900
   22        0.8109243000
   23       -0.0000000000
   24        0.0000000000
   25        0.0000000000
   26        0.0150410000
   27       -0.0310836600
   28       -0.0000000000
   29        0.0000000000
   30        0.0000000000
   31        0.0000000000
   32        0.0104140100
   33       -0.0215215400
   34       -0.0000000000
   35        0.0000000000
   36        0.0000000000
   37       -0.0000000000
   38       -0.0000000000
   39       -0.0000000000
   40       -0.0000000000
   41       -0.0000000000
   42        0.0000000000
   43       -0.0000000000
   44        0.0000000000
   45        0.0000000000
   46        0.0215421100
   47       -0.0445188300
   48        0.0000000000
   49       -0.0796707200
   50        0.1646471700
   51        0.0000000000
   52        0.3747684600
   53       -0.7744949100
   54        0.0000000000
   55       -0.3923961900
   56        0.8109243000
   57       -0.0000000000
   58       -0.0000000000
   59       -0.0000000000
   60       -0.0150410000
   61        0.0310836600
   62        0.0000000000
   63       -0.0000000000
   64        0.0000000000
   65        0.0000000000
   66       -0.0104140100
   67        0.0215215400
   68        0.0000000000
 Ene=          0.01108740
 Spin= Alpha
 Occup=        0.00000000
    1       -0.0121826500
    2        0.0285514100
    3        6.9837786900
    4        0.2936632600
    5        0.0245443100
    6        0.0601067200
    7        0.0152863600
    8       -0.0160816500
    9       -0.0017722400
   10        0.0001087300
   11        0.0865035300
   12        0.0000000000
   13       -0.0000000000
   14       -0.0809067500
   15       -0.0000000000
   16        0.0000000000
   17        2.3845292400
   18        0.0000000000
   19       -0.0000000000
   20        1.6308329000
   21        0.0000000000
   22       -0.0000000000
   23        0.0521403000
   24        0.1932576400
   25        0.1932576400
   26        0.0000000000
   27       -0.0000000000
   28        0.0000000000
   29        0.2142577300
   30       -0.0064826000
   31       -0.0064826000
   32       -0.0000000000
   33        0.0000000000
   34       -0.0000000000
   35        0.0121826500
   36       -0.0285514100
   37       -6.9837786900
   38       -0.2936632600
   39       -0.0245443100
   40       -0.0601067200
   41       -0.0152863600
   42        0.0160816500
   43        0.0017722400
   44       -0.0001087300
   45        0.0865035300
   46       -0.0000000000
   47        0.0000000000
   48       -0.0809067500
   49        0.0000000000
   50       -0.0000000000
   51        2.3845292400
   52       -0.0000000000
   53        0.0000000000
   54        1.6308329000
   55        0.0000000000
   56       -0.0000000000
   57       -0.0521403000
   58       -0.1932576400
   59       -0.1932576400
   60        0.0000000000
   61       -0.0000000000
   62       -0.0000000000
   63       -0.2142577300
   64        0.0064826000
   65        0.0064826000
   66       -0.0000000000
   67        0.0000000000
   68        0.0000000000
 Ene=          0.01268320
 Spin= Alpha
 Occup=        0.00000000
    1        0.7150257800
    2       -0.7437581600
    3       -0.0096105900
    4        1.5376076600
    5       -1.1938643800
    6        0.0741913600
    7       -0.1413025300
    8        0.0829661100
    9        0.0005275600
   10        0.0006677800
   11       -4.4886799700
   12        0.0000000000
   13        0.0000000000
   14        0.8030290200
   15        0.0000000000
   16       -0.0000000000
   17       -0.6951325900
   18        0.0000000000
   19        0.0000000000
   20        0.3090626900
   21       -0.0000000000
   22       -0.0000000000
   23       -0.9547258400
   24        0.0663169200
   25        0.0663169200
   26        0.0000000000
   27        0.0000000000
   28        0.0000000000
   29        0.4723386500
   30        0.2320273900
   31        0.2320273900
   32        0.0000000000
   33       -0.0000000000
   34       -0.0000000000
   35        0.7150257800
   36       -0.7437581600
   37       -0.0096105900
   38        1.5376076600
   39       -1.1938643800
   40        0.0741913600
   41       -0.1413025300
   42        0.0829661100
   43        0.0005275600
   44        0.0006677800
   45        4.4886799700
   46       -0.0000000000
   47       -0.0000000000
   48       -0.8030290200
   49       -0.0000000000
   50        0.0000000000
   51        0.6951325900
   52       -0.0000000000
   53       -0.0000000000
   54       -0.3090626900
   55        0.0000000000
   56        0.0000000000
   57       -0.9547258400
   58        0.0663169200
   59        0.0663169200
   60        0.0000000000
   61        0.0000000000
   62       -0.0000000000
   63        0.4723386500
   64        0.2320273900
   65        0.2320273900
   66        0.0000000000
   67       -0.0000000000
   68        0.0000000000
 Ene=          0.01644100
 Spin= Alpha
 Occup=        0.00000000
    1       -0.0000000000
    2        0.0000000000
    3        0.0000000000
    4       -0.0000000000
    5        0.0000000000
    6       -0.0000000000
    7        0.0000000000
    8       -0.0000000000
    9        0.0000000000
   10       -0.0000000000
   11       -0.0000000000
   12        2.4326953300
   13       19.5894899800
   14        0.0000000000
   15       -0.5161930000
   16       -4.1566888800
   17       -0.0000000000
   18        0.2640339500
   19        2.1261563000
   20       -0.0000000000
   21       -0.1310453000
   22       -1.0552536700
   23       -0.0000000000
   24        0.0000000000
   25        0.0000000000
   26        0.3150342400
   27        2.5368405000
   28       -0.0000000000
   29        0.0000000000
   30        0.0000000000
   31        0.0000000000
   32       -0.0967192000
   33       -0.7788397500
   34        0.0000000000
   35        0.0000000000
   36       -0.0000000000
   37       -0.0000000000
   38        0.0000000000
   39       -0.0000000000
   40        0.0000000000
   41       -0.0000000000
   42        0.0000000000
   43       -0.0000000000
   44        0.0000000000
   45        0.0000000000
   46       -2.4326953300
   47      -19.5894899800
   48        0.0000000000
   49        0.5161930000
   50        4.1566888800
   51        0.0000000000
   52       -0.2640339500
   53       -2.1261563000
   54       -0.0000000000
   55        0.1310453000
   56        1.0552536700
   57       -0.0000000000
   58       -0.0000000000
   59       -0.0000000000
   60        0.3150342400
   61        2.5368405000
   62        0.0000000000
   63       -0.0000000000
   64       -0.0000000000
   65       -0.0000000000
   66       -0.0967192000
   67       -0.7788397500
   68       -0.0000000000
 Ene=          0.01644100
 Spin= Alpha
 Occup=        0.00000000
    1        0.0000000000
    2       -0.0000000000
    3        0.0000000000
    4       -0.0000000000
    5        0.0000000000
    6       -0.0000000000
    7        0.0000000000
    8       -0.0000000000
    9        0.0000000000
   10       -0.0000000000
   11       -0.0000000000
   12       19.5894899800
   13       -2.4326953300
   14       -0.0000000000
   15       -4.1566888800
   16        0.5161930000
   17        0.0000000000
   18        2.1261563000
   19       -0.2640339500
   20       -0.0000000000
   21       -1.0552536700
   22        0.1310453000
   23       -0.0000000000
   24        0.0000000000
   25        0.0000000000
   26        2.5368405000
   27       -0.3150342400
   28       -0.0000000000
   29        0.0000000000
   30        0.0000000000
   31        0.0000000000
   32       -0.7788397500
   33        0.0967192000
   34        0.0000000000
   35       -0.0000000000
   36        0.0000000000
   37       -0.0000000000
   38        0.0000000000
   39       -0.0000000000
   40        0.0000000000
   41       -0.0000000000
   42        0.0000000000
   43       -0.0000000000
   44        0.0000000000
   45        0.0000000000
   46      -19.5894899800
   47        2.4326953300
   48       -0.0000000000
   49        4.1566888800
   50       -0.5161930000
   51        0.0000000000
   52       -2.1261563000
   53        0.2640339500
   54       -0.0000000000
   55        1.0552536700
   56       -0.1310453000
   57       -0.0000000000
   58       -0.0000000000
   59       -0.0000000000
   60        2.5368405000
   61       -0.3150342400
   62        0.0000000000
   63        0.0000000000
   64        0.0000000000
   65        0.0000000000
   66       -0.7788397500
   67        0.0967192000
   68       -0.0000000000
 Ene=          0.01670130
 Spin= Alpha
 Occup=        0.00000000
    1        0.0134979900
    2        0.0285538300
    3       -4.0613685200
    4        3.3772545400
    5       -1.4076854900
    6        0.1224549100
    7       -0.1219685400
    8        0.0662693800
    9       -0.0006820800
   10        0.0006917100
   11       -0.0922703500
   12       -0.0000000000
   13       -0.0000000000
   14       -0.1212675300
   15       -0.0000000000
   16        0.0000000000