 Molden2AIM, Version 3.1.0 (02/25/2015)           Time: Thu Oct 17 19:52:05 2024
GAUSSIAN             68 MOL ORBITALS     68 PRIMITIVES        2 NUCLEI
  Be   1    (CENTRE  1)   0.00000000  0.00000000  0.00000000  CHARGE =  4.0
  Be   2    (CENTRE  2)   3.00000000  0.00000000  0.00000000  CHARGE =  4.0
CENTRE ASSIGNMENTS    1  1  1  1  1  1  1  1  1  1  1  1  1  1  1  1  1  1  1  1
CENTRE ASSIGNMENTS    1  1  1  1  1  1  1  1  1  1  1  1  1  1  2  2  2  2  2  2
CENTRE ASSIGNMENTS    2  2  2  2  2  2  2  2  2  2  2  2  2  2  2  2  2  2  2  2
CENTRE ASSIGNMENTS    2  2  2  2  2  2  2  2
TYPE ASSIGNMENTS      1  1  1  1  1  1  1  1  1  1  2  3  4  2  3  4  2  3  4  2
TYPE ASSIGNMENTS      3  4  5  6  7  8  9 10  5  6  7  8  9 10  1  1  1  1  1  1
TYPE ASSIGNMENTS      1  1  1  1  2  3  4  2  3  4  2  3  4  2  3  4  5  6  7  8
TYPE ASSIGNMENTS      9 10  5  6  7  8  9 10
EXPONENTS  0.1000000D-03 0.3000000D-03 0.9000000D-03 0.2700000D-02 0.8100000D-02
EXPONENTS  0.2430000D-01 0.7290000D-01 0.2187000D+00 0.6561000D+00 0.1968300D+01
EXPONENTS  0.1000000D-03 0.1000000D-03 0.1000000D-03 0.3000000D-03 0.3000000D-03
EXPONENTS  0.3000000D-03 0.9000000D-03 0.9000000D-03 0.9000000D-03 0.2700000D-02
EXPONENTS  0.2700000D-02 0.2700000D-02 0.1000000D-03 0.1000000D-03 0.1000000D-03
EXPONENTS  0.1000000D-03 0.1000000D-03 0.1000000D-03 0.3000000D-03 0.3000000D-03
EXPONENTS  0.3000000D-03 0.3000000D-03 0.3000000D-03 0.3000000D-03 0.1000000D-03
EXPONENTS  0.3000000D-03 0.9000000D-03 0.2700000D-02 0.8100000D-02 0.2430000D-01
EXPONENTS  0.7290000D-01 0.2187000D+00 0.6561000D+00 0.1968300D+01 0.1000000D-03
EXPONENTS  0.1000000D-03 0.1000000D-03 0.3000000D-03 0.3000000D-03 0.3000000D-03
EXPONENTS  0.9000000D-03 0.9000000D-03 0.9000000D-03 0.2700000D-02 0.2700000D-02
EXPONENTS  0.2700000D-02 0.1000000D-03 0.1000000D-03 0.1000000D-03 0.1000000D-03
EXPONENTS  0.1000000D-03 0.1000000D-03 0.3000000D-03 0.3000000D-03 0.3000000D-03
EXPONENTS  0.3000000D-03 0.3000000D-03 0.3000000D-03
MO    1     MO 0.0        OCC NO =    1.0000000  ORB. ENERGY =   -0.023942
  0.61214130D-05  0.14025287D-04 -0.55847863D-04  0.18857369D-04 -0.30977414D-02
 -0.11304649D-01 -0.25637603D-01  0.45279514D-01  0.86209620D-02 -0.14139906D-03
  0.41398210D-08 -0.00000000D+00  0.00000000D+00  0.35612964D-07  0.00000000D+00
  0.00000000D+00  0.21808444D-05 -0.00000000D+00  0.00000000D+00 -0.15529222D-04
  0.00000000D+00 -0.00000000D+00 -0.21266639D-09 -0.20314308D-09 -0.20314308D-09
 -0.00000000D+00 -0.00000000D+00 -0.00000000D+00 -0.44920059D-08 -0.47576962D-08
 -0.47576962D-08  0.00000000D+00  0.00000000D+00 -0.00000000D+00  0.61214130D-05
  0.14025287D-04 -0.55847863D-04  0.18857369D-04 -0.30977414D-02 -0.11304649D-01
 -0.25637603D-01  0.45279514D-01  0.86209620D-02 -0.14139906D-03 -0.41398210D-08
  0.00000000D+00 -0.00000000D+00 -0.35612964D-07 -0.00000000D+00  0.00000000D+00
 -0.21808444D-05  0.00000000D+00 -0.00000000D+00  0.15529222D-04 -0.00000000D+00
  0.00000000D+00 -0.21266639D-09 -0.20314308D-09 -0.20314308D-09  0.00000000D+00
  0.00000000D+00  0.00000000D+00 -0.44920059D-08 -0.47576962D-08 -0.47576962D-08
 -0.00000000D+00 -0.00000000D+00  0.00000000D+00
MO    2     MO 0.0        OCC NO =    0.0000000  ORB. ENERGY =    0.002097
  0.88327699D-04  0.50800334D-03 -0.40000178D-02  0.40568477D-02 -0.15100460D-02
  0.36370385D-02  0.10891600D-02 -0.36708768D-02 -0.16751364D-02  0.31148297D-03
  0.59475414D-07 -0.00000000D+00  0.00000000D+00  0.11302096D-05  0.00000000D+00
  0.00000000D+00  0.63216988D-04  0.00000000D+00 -0.00000000D+00 -0.19170227D-03
 -0.00000000D+00  0.00000000D+00 -0.30408423D-08 -0.26123856D-08 -0.26123856D-08
 -0.00000000D+00  0.00000000D+00  0.00000000D+00 -0.91997596D-07 -0.10134333D-06
 -0.10134333D-06  0.00000000D+00 -0.00000000D+00 -0.00000000D+00  0.88327699D-04
  0.50800334D-03 -0.40000178D-02  0.40568477D-02 -0.15100460D-02  0.36370385D-02
  0.10891600D-02 -0.36708768D-02 -0.16751364D-02  0.31148297D-03 -0.59475414D-07
  0.00000000D+00 -0.00000000D+00 -0.11302096D-05 -0.00000000D+00 -0.00000000D+00
 -0.63216988D-04 -0.00000000D+00  0.00000000D+00  0.19170227D-03  0.00000000D+00
 -0.00000000D+00 -0.30408423D-08 -0.26123856D-08 -0.26123856D-08  0.00000000D+00
  0.00000000D+00 -0.00000000D+00 -0.91997596D-07 -0.10134333D-06 -0.10134333D-06
 -0.00000000D+00  0.00000000D+00  0.00000000D+00
MO    3     MO 0.0        OCC NO =    0.0000000  ORB. ENERGY =    0.002931
 -0.21495696D-05 -0.93008357D-05  0.22249947D-03 -0.68681403D-03  0.10167857D-01
  0.67566407D-03  0.49532162D-02 -0.39221714D-02  0.62649340D-03 -0.41074300D-03
  0.25865585D-05  0.00000000D+00  0.00000000D+00  0.87223399D-05  0.00000000D+00
 -0.00000000D+00 -0.17614782D-03  0.00000000D+00 -0.00000000D+00  0.95538499D-04
  0.00000000D+00 -0.00000000D+00  0.37227295D-06  0.37006885D-06  0.37006885D-06
  0.00000000D+00  0.00000000D+00  0.00000000D+00  0.48930171D-05  0.49090096D-05
  0.49090096D-05  0.00000000D+00 -0.00000000D+00 -0.00000000D+00  0.21495696D-05
  0.93008357D-05 -0.22249947D-03  0.68681403D-03 -0.10167857D-01 -0.67566407D-03
 -0.49532162D-02  0.39221714D-02 -0.62649340D-03  0.41074300D-03  0.25865585D-05
 -0.00000000D+00 -0.00000000D+00  0.87223399D-05 -0.00000000D+00  0.00000000D+00
 -0.17614782D-03 -0.00000000D+00  0.00000000D+00  0.95538499D-04 -0.00000000D+00
  0.00000000D+00 -0.37227295D-06 -0.37006885D-06 -0.37006885D-06  0.00000000D+00
  0.00000000D+00 -0.00000000D+00 -0.48930171D-05 -0.49090096D-05 -0.49090096D-05
  0.00000000D+00 -0.00000000D+00  0.00000000D+00
MO    4     MO 0.0        OCC NO =    0.0000000  ORB. ENERGY =    0.003398
  0.00000000D+00  0.00000000D+00 -0.00000000D+00  0.00000000D+00 -0.00000000D+00
 -0.00000000D+00 -0.00000000D+00  0.00000000D+00 -0.00000000D+00  0.00000000D+00
  0.00000000D+00 -0.36194961D-06  0.81899124D-07  0.00000000D+00  0.64412378D-05
 -0.14574735D-05  0.00000000D+00 -0.12406937D-03  0.28073456D-04  0.00000000D+00
 -0.41595807D-05  0.94119530D-06  0.00000000D+00  0.00000000D+00  0.00000000D+00
 -0.15830042D-06  0.35818995D-07  0.00000000D+00  0.00000000D+00  0.00000000D+00
  0.00000000D+00  0.66637227D-06 -0.15078156D-06 -0.00000000D+00 -0.00000000D+00
 -0.00000000D+00  0.00000000D+00 -0.00000000D+00  0.00000000D+00  0.00000000D+00
  0.00000000D+00 -0.00000000D+00  0.00000000D+00 -0.00000000D+00 -0.00000000D+00
 -0.36194961D-06  0.81899124D-07 -0.00000000D+00  0.64412378D-05 -0.14574735D-05
 -0.00000000D+00 -0.12406937D-03  0.28073456D-04  0.00000000D+00 -0.41595807D-05
  0.94119530D-06 -0.00000000D+00 -0.00000000D+00 -0.00000000D+00  0.15830042D-06
 -0.35818995D-07 -0.00000000D+00 -0.00000000D+00 -0.00000000D+00 -0.00000000D+00
 -0.66637227D-06  0.15078156D-06  0.00000000D+00
MO    5     MO 0.0        OCC NO =    0.0000000  ORB. ENERGY =    0.003398
  0.00000000D+00 -0.00000000D+00  0.00000000D+00 -0.00000000D+00  0.00000000D+00
 -0.00000000D+00 -0.00000000D+00  0.00000000D+00  0.00000000D+00 -0.00000000D+00
 -0.00000000D+00  0.81899124D-07  0.36194961D-06  0.00000000D+00 -0.14574735D-05
 -0.64412378D-05  0.00000000D+00  0.28073456D-04  0.12406937D-03 -0.00000000D+00
  0.94119530D-06  0.41595807D-05  0.00000000D+00  0.00000000D+00  0.00000000D+00
  0.35818995D-07  0.15830042D-06 -0.00000000D+00  0.00000000D+00  0.00000000D+00
 -0.00000000D+00 -0.15078156D-06 -0.66637227D-06  0.00000000D+00 -0.00000000D+00
  0.00000000D+00 -0.00000000D+00  0.00000000D+00  0.00000000D+00 -0.00000000D+00
  0.00000000D+00 -0.00000000D+00  0.00000000D+00 -0.00000000D+00  0.00000000D+00
  0.81899124D-07  0.36194961D-06 -0.00000000D+00 -0.14574735D-05 -0.64412378D-05
 -0.00000000D+00  0.28073456D-04  0.12406937D-03  0.00000000D+00  0.94119530D-06
  0.41595807D-05 -0.00000000D+00 -0.00000000D+00 -0.00000000D+00 -0.35818995D-07
 -0.15830042D-06  0.00000000D+00 -0.00000000D+00 -0.00000000D+00  0.00000000D+00
  0.15078156D-06  0.66637227D-06 -0.00000000D+00
MO    6     MO 0.0        OCC NO =    0.0000000  ORB. ENERGY =    0.006570
 -0.00000000D+00 -0.00000000D+00  0.00000000D+00  0.00000000D+00 -0.00000000D+00
  0.00000000D+00  0.00000000D+00 -0.00000000D+00  0.00000000D+00 -0.00000000D+00
  0.00000000D+00 -0.11755364D-08  0.49138191D-08 -0.00000000D+00  0.12267563D-07
 -0.51276928D-07 -0.00000000D+00 -0.53430849D-03  0.22333529D-02 -0.00000000D+00
 -0.32557588D-03  0.13608727D-02 -0.00000000D+00 -0.00000000D+00 -0.00000000D+00
  0.24194355D-08 -0.10112983D-07  0.00000000D+00 -0.00000000D+00 -0.00000000D+00
 -0.00000000D+00 -0.48955849D-07  0.20463027D-06  0.00000000D+00  0.00000000D+00
  0.00000000D+00  0.00000000D+00 -0.00000000D+00  0.00000000D+00 -0.00000000D+00
 -0.00000000D+00  0.00000000D+00  0.00000000D+00 -0.00000000D+00 -0.00000000D+00
  0.11755364D-08 -0.49138191D-08  0.00000000D+00 -0.12267563D-07  0.51276928D-07
  0.00000000D+00  0.53430849D-03 -0.22333529D-02  0.00000000D+00  0.32557588D-03
 -0.13608727D-02  0.00000000D+00  0.00000000D+00  0.00000000D+00  0.24194355D-08
 -0.10112983D-07 -0.00000000D+00  0.00000000D+00  0.00000000D+00  0.00000000D+00
 -0.48955849D-07  0.20463027D-06 -0.00000000D+00
MO    7     MO 0.0        OCC NO =    0.0000000  ORB. ENERGY =    0.006570
  0.00000000D+00  0.00000000D+00 -0.00000000D+00 -0.00000000D+00 -0.00000000D+00
  0.00000000D+00 -0.00000000D+00  0.00000000D+00 -0.00000000D+00 -0.00000000D+00
 -0.00000000D+00 -0.49138191D-08 -0.11755364D-08  0.00000000D+00  0.51276928D-07
  0.12267563D-07  0.00000000D+00 -0.22333529D-02 -0.53430849D-03  0.00000000D+00
 -0.13608727D-02 -0.32557588D-03 -0.00000000D+00 -0.00000000D+00 -0.00000000D+00
  0.10112983D-07  0.24194355D-08  0.00000000D+00 -0.00000000D+00 -0.00000000D+00
 -0.00000000D+00 -0.20463027D-06 -0.48955849D-07 -0.00000000D+00  0.00000000D+00
  0.00000000D+00 -0.00000000D+00 -0.00000000D+00 -0.00000000D+00 -0.00000000D+00
  0.00000000D+00 -0.00000000D+00  0.00000000D+00 -0.00000000D+00 -0.00000000D+00
  0.49138191D-08  0.11755364D-08 -0.00000000D+00 -0.51276928D-07 -0.12267563D-07
 -0.00000000D+00  0.22333529D-02  0.53430849D-03 -0.00000000D+00  0.13608727D-02
  0.32557588D-03  0.00000000D+00  0.00000000D+00  0.00000000D+00  0.10112983D-07
  0.24194355D-08 -0.00000000D+00  0.00000000D+00 -0.00000000D+00  0.00000000D+00
 -0.20463027D-06 -0.48955849D-07  0.00000000D+00
MO    8     MO 0.0        OCC NO =    0.0000000  ORB. ENERGY =    0.006608
 -0.19485718D-03 -0.94138210D-03  0.20541805D-02  0.36642229D-02  0.35404475D-03
 -0.86993716D-04 -0.15311439D-04  0.46540511D-04 -0.28586317D-04  0.11511842D-04
 -0.13935288D-06 -0.00000000D+00 -0.00000000D+00 -0.20370346D-05 -0.00000000D+00
 -0.00000000D+00 -0.19462100D-02 -0.00000000D+00 -0.00000000D+00 -0.12986796D-02
 -0.00000000D+00 -0.00000000D+00  0.12128983D-07  0.34383195D-08  0.34383195D-08
  0.00000000D+00  0.00000000D+00  0.00000000D+00  0.74436273D-07  0.25332650D-06
  0.25332650D-06 -0.00000000D+00 -0.00000000D+00 -0.00000000D+00 -0.19485718D-03
 -0.94138210D-03  0.20541805D-02  0.36642229D-02  0.35404475D-03 -0.86993716D-04
 -0.15311439D-04  0.46540511D-04 -0.28586317D-04  0.11511842D-04  0.13935288D-06
  0.00000000D+00  0.00000000D+00  0.20370346D-05  0.00000000D+00  0.00000000D+00
  0.19462100D-02  0.00000000D+00  0.00000000D+00  0.12986796D-02  0.00000000D+00
  0.00000000D+00  0.12128983D-07  0.34383195D-08  0.34383195D-08  0.00000000D+00
 -0.00000000D+00 -0.00000000D+00  0.74436273D-07  0.25332650D-06  0.25332650D-06
 -0.00000000D+00 -0.00000000D+00  0.00000000D+00
MO    9     MO 0.0        OCC NO =    0.0000000  ORB. ENERGY =    0.007507
 -0.17212621D-05 -0.81852111D-05  0.20016349D-03 -0.98438103D-03  0.32055454D-04
 -0.15675881D-01 -0.97298663D-02  0.92163477D-02 -0.10838069D-03  0.57415905D-03
  0.20715862D-05  0.00000000D+00  0.00000000D+00  0.78868692D-05  0.00000000D+00
 -0.00000000D+00 -0.16782211D-03 -0.00000000D+00  0.00000000D+00  0.62921055D-03
  0.00000000D+00  0.00000000D+00  0.29755574D-06  0.29537261D-06  0.29537261D-06
 -0.00000000D+00  0.00000000D+00  0.00000000D+00  0.40254024D-05  0.40415463D-05
  0.40415463D-05  0.00000000D+00 -0.00000000D+00 -0.00000000D+00  0.17212621D-05
  0.81852111D-05 -0.20016349D-03  0.98438103D-03 -0.32055454D-04  0.15675881D-01
  0.97298663D-02 -0.92163477D-02  0.10838069D-03 -0.57415905D-03  0.20715862D-05
 -0.00000000D+00 -0.00000000D+00  0.78868692D-05 -0.00000000D+00  0.00000000D+00
 -0.16782211D-03  0.00000000D+00 -0.00000000D+00  0.62921055D-03 -0.00000000D+00
 -0.00000000D+00 -0.29755574D-06 -0.29537261D-06 -0.29537261D-06  0.00000000D+00
  0.00000000D+00 -0.00000000D+00 -0.40254024D-05 -0.40415463D-05 -0.40415463D-05
 -0.00000000D+00 -0.00000000D+00  0.00000000D+00
MO   10     MO 0.0        OCC NO =    0.0000000  ORB. ENERGY =    0.008452
 -0.59096604D-04  0.23713991D-03 -0.32942308D-02  0.12404839D-01 -0.12180545D-01
  0.21316599D-02 -0.11278437D-01  0.15068689D-01  0.61479806D-03  0.68510857D-03
 -0.39261091D-07 -0.00000000D+00  0.00000000D+00  0.39217033D-06  0.00000000D+00
  0.00000000D+00  0.25432993D-03  0.00000000D+00  0.00000000D+00 -0.68988487D-03
  0.00000000D+00  0.00000000D+00  0.13325292D-08  0.27767705D-08  0.27767705D-08
 -0.00000000D+00 -0.00000000D+00  0.00000000D+00  0.26292487D-07 -0.14304166D-08
 -0.14304166D-08  0.00000000D+00  0.00000000D+00 -0.00000000D+00 -0.59096604D-04
  0.23713991D-03 -0.32942308D-02  0.12404839D-01 -0.12180545D-01  0.21316599D-02
 -0.11278437D-01  0.15068689D-01  0.61479806D-03  0.68510857D-03  0.39261091D-07
  0.00000000D+00 -0.00000000D+00 -0.39217033D-06 -0.00000000D+00 -0.00000000D+00
 -0.25432993D-03 -0.00000000D+00 -0.00000000D+00  0.68988487D-03 -0.00000000D+00
  0.00000000D+00  0.13325292D-08  0.27767705D-08  0.27767705D-08  0.00000000D+00
  0.00000000D+00 -0.00000000D+00  0.26292487D-07 -0.14304166D-08 -0.14304166D-08
 -0.00000000D+00 -0.00000000D+00  0.00000000D+00
MO   11     MO 0.0        OCC NO =    0.0000000  ORB. ENERGY =    0.008693
 -0.00000000D+00  0.00000000D+00 -0.00000000D+00 -0.00000000D+00  0.00000000D+00
 -0.00000000D+00  0.00000000D+00 -0.00000000D+00  0.00000000D+00 -0.00000000D+00
  0.00000000D+00  0.18265216D-07 -0.33614141D-06 -0.00000000D+00 -0.33148084D-06
  0.61003562D-05 -0.00000000D+00  0.74098359D-05 -0.13636579D-03 -0.00000000D+00
 -0.35018713D-04  0.64446166D-03  0.00000000D+00  0.00000000D+00  0.00000000D+00
  0.76060156D-08 -0.13997614D-06 -0.00000000D+00  0.00000000D+00  0.00000000D+00
  0.00000000D+00 -0.31598037D-07  0.58150963D-06  0.00000000D+00  0.00000000D+00
 -0.00000000D+00  0.00000000D+00 -0.00000000D+00 -0.00000000D+00 -0.00000000D+00
  0.00000000D+00 -0.00000000D+00 -0.00000000D+00  0.00000000D+00 -0.00000000D+00
  0.18265216D-07 -0.33614141D-06  0.00000000D+00 -0.33148084D-06  0.61003562D-05
  0.00000000D+00  0.74098359D-05 -0.13636579D-03  0.00000000D+00 -0.35018713D-04
  0.64446166D-03 -0.00000000D+00 -0.00000000D+00 -0.00000000D+00 -0.76060156D-08
  0.13997614D-06  0.00000000D+00 -0.00000000D+00 -0.00000000D+00 -0.00000000D+00
  0.31598037D-07 -0.58150963D-06 -0.00000000D+00
MO   12     MO 0.0        OCC NO =    0.0000000  ORB. ENERGY =    0.008693
  0.00000000D+00  0.00000000D+00 -0.00000000D+00  0.00000000D+00 -0.00000000D+00
 -0.00000000D+00 -0.00000000D+00  0.00000000D+00 -0.00000000D+00  0.00000000D+00
  0.00000000D+00 -0.33614141D-06 -0.18265216D-07  0.00000000D+00  0.61003562D-05
  0.33148084D-06  0.00000000D+00 -0.13636579D-03 -0.74098359D-05 -0.00000000D+00
  0.64446166D-03  0.35018713D-04 -0.00000000D+00 -0.00000000D+00 -0.00000000D+00
 -0.13997614D-06 -0.76060156D-08  0.00000000D+00 -0.00000000D+00 -0.00000000D+00
 -0.00000000D+00  0.58150963D-06  0.31598037D-07 -0.00000000D+00 -0.00000000D+00
 -0.00000000D+00  0.00000000D+00 -0.00000000D+00  0.00000000D+00  0.00000000D+00
  0.00000000D+00 -0.00000000D+00 -0.00000000D+00  0.00000000D+00 -0.00000000D+00
 -0.33614141D-06 -0.18265216D-07 -0.00000000D+00  0.61003562D-05  0.33148084D-06
 -0.00000000D+00 -0.13636579D-03 -0.74098359D-05  0.00000000D+00  0.64446166D-03
  0.35018713D-04  0.00000000D+00  0.00000000D+00  0.00000000D+00  0.13997614D-06
  0.76060156D-08 -0.00000000D+00  0.00000000D+00  0.00000000D+00  0.00000000D+00
 -0.58150963D-06 -0.31598037D-07  0.00000000D+00
MO   13     MO 0.0        OCC NO =    0.0000000  ORB. ENERGY =    0.014447
 -0.00000000D+00 -0.00000000D+00  0.00000000D+00  0.00000000D+00  0.00000000D+00
  0.00000000D+00  0.00000000D+00 -0.00000000D+00  0.00000000D+00 -0.00000000D+00
  0.00000000D+00 -0.92665965D-09  0.35591086D-08 -0.00000000D+00  0.30193356D-08
 -0.11596162D-07 -0.00000000D+00 -0.69362217D-03  0.26638480D-02  0.00000000D+00
  0.18075227D-02 -0.69417706D-02  0.00000000D+00  0.00000000D+00  0.00000000D+00
  0.25185386D-08 -0.96724224D-08 -0.00000000D+00  0.00000000D+00  0.00000000D+00
  0.00000000D+00 -0.52083341D-07  0.20002546D-06  0.00000000D+00  0.00000000D+00
  0.00000000D+00  0.00000000D+00 -0.00000000D+00 -0.00000000D+00  0.00000000D+00
 -0.00000000D+00  0.00000000D+00 -0.00000000D+00  0.00000000D+00 -0.00000000D+00
  0.92665965D-09 -0.35591086D-08  0.00000000D+00 -0.30193356D-08  0.11596162D-07
  0.00000000D+00  0.69362217D-03 -0.26638480D-02 -0.00000000D+00 -0.18075227D-02
  0.69417706D-02 -0.00000000D+00 -0.00000000D+00 -0.00000000D+00  0.25185386D-08
 -0.96724224D-08  0.00000000D+00 -0.00000000D+00 -0.00000000D+00 -0.00000000D+00
 -0.52083341D-07  0.20002546D-06 -0.00000000D+00
MO   14     MO 0.0        OCC NO =    0.0000000  ORB. ENERGY =    0.014447
  0.00000000D+00  0.00000000D+00 -0.00000000D+00 -0.00000000D+00 -0.00000000D+00
 -0.00000000D+00  0.00000000D+00 -0.00000000D+00 -0.00000000D+00 -0.00000000D+00
  0.00000000D+00 -0.35591086D-08 -0.92665965D-09  0.00000000D+00  0.11596162D-07
  0.30193356D-08  0.00000000D+00 -0.26638480D-02 -0.69362217D-03 -0.00000000D+00
  0.69417706D-02  0.18075227D-02  0.00000000D+00  0.00000000D+00  0.00000000D+00
  0.96724224D-08  0.25185386D-08  0.00000000D+00  0.00000000D+00  0.00000000D+00
  0.00000000D+00 -0.20002546D-06 -0.52083341D-07 -0.00000000D+00  0.00000000D+00
 -0.00000000D+00 -0.00000000D+00  0.00000000D+00  0.00000000D+00 -0.00000000D+00
  0.00000000D+00 -0.00000000D+00  0.00000000D+00 -0.00000000D+00  0.00000000D+00
  0.35591086D-08  0.92665965D-09 -0.00000000D+00 -0.11596162D-07 -0.30193356D-08
 -0.00000000D+00  0.26638480D-02  0.69362217D-03  0.00000000D+00 -0.69417706D-02
 -0.18075227D-02 -0.00000000D+00 -0.00000000D+00 -0.00000000D+00  0.96724224D-08
  0.25185386D-08 -0.00000000D+00 -0.00000000D+00 -0.00000000D+00 -0.00000000D+00
 -0.20002546D-06 -0.52083341D-07  0.00000000D+00
MO   15     MO 0.0        OCC NO =    0.0000000  ORB. ENERGY =    0.014899
  0.36072602D-03  0.14629722D-02 -0.48450002D-02  0.53351955D-03  0.11152028D-01
 -0.43120100D-02  0.57098450D-02 -0.59559250D-02  0.68755236D-03 -0.56065751D-03
  0.24829661D-06  0.00000000D+00  0.00000000D+00  0.33610197D-05  0.00000000D+00
  0.00000000D+00  0.22780406D-02  0.00000000D+00  0.00000000D+00 -0.59010842D-02
 -0.00000000D+00 -0.00000000D+00 -0.17154525D-07 -0.93845629D-08 -0.93845629D-08
 -0.00000000D+00  0.00000000D+00 -0.00000000D+00 -0.21986731D-06 -0.38704989D-06
 -0.38704989D-06  0.00000000D+00 -0.00000000D+00  0.00000000D+00  0.36072602D-03
  0.14629722D-02 -0.48450002D-02  0.53351955D-03  0.11152028D-01 -0.43120100D-02
  0.57098450D-02 -0.59559250D-02  0.68755236D-03 -0.56065751D-03 -0.24829661D-06
 -0.00000000D+00 -0.00000000D+00 -0.33610197D-05 -0.00000000D+00 -0.00000000D+00
 -0.22780406D-02 -0.00000000D+00 -0.00000000D+00  0.59010842D-02  0.00000000D+00
  0.00000000D+00 -0.17154525D-07 -0.93845629D-08 -0.93845629D-08  0.00000000D+00
 -0.00000000D+00  0.00000000D+00 -0.21986731D-06 -0.38704989D-06 -0.38704989D-06
 -0.00000000D+00  0.00000000D+00 -0.00000000D+00
MO   16     MO 0.0        OCC NO =    0.0000000  ORB. ENERGY =    0.018924
 -0.15975507D-05 -0.69608346D-06  0.59647254D-05  0.61222839D-04 -0.89410115D-01
 -0.10651377D-01 -0.26525318D-01  0.21408624D-01 -0.24217733D-02  0.19566223D-02
  0.19043711D-05  0.00000000D+00  0.00000000D+00 -0.10181999D-05  0.00000000D+00
 -0.00000000D+00  0.60802998D-04  0.00000000D+00  0.00000000D+00 -0.68588729D-03
 -0.00000000D+00 -0.00000000D+00  0.30057674D-06  0.30238319D-06  0.30238319D-06
 -0.00000000D+00  0.00000000D+00  0.00000000D+00  0.25916021D-05  0.25754784D-05
  0.25754784D-05  0.00000000D+00 -0.00000000D+00 -0.00000000D+00  0.15975507D-05
  0.69608346D-06 -0.59647254D-05 -0.61222839D-04  0.89410115D-01  0.10651377D-01
  0.26525318D-01 -0.21408624D-01  0.24217733D-02 -0.19566223D-02  0.19043711D-05
 -0.00000000D+00 -0.00000000D+00 -0.10181999D-05 -0.00000000D+00  0.00000000D+00
  0.60802998D-04 -0.00000000D+00 -0.00000000D+00 -0.68588729D-03  0.00000000D+00
  0.00000000D+00 -0.30057674D-06 -0.30238319D-06 -0.30238319D-06  0.00000000D+00
  0.00000000D+00 -0.00000000D+00 -0.25916021D-05 -0.25754784D-05 -0.25754784D-05
 -0.00000000D+00  0.00000000D+00  0.00000000D+00
MO   17     MO 0.0        OCC NO =    0.0000000  ORB. ENERGY =    0.024993
 -0.21061621D-02 -0.48985878D-02  0.14292457D-01 -0.12563633D-01  0.22295495D-02
  0.63097234D-02  0.24229251D-02 -0.67116345D-02 -0.25694018D-02  0.39831921D-03
 -0.14222819D-05  0.00000000D+00 -0.00000000D+00 -0.12467522D-04 -0.00000000D+00
 -0.00000000D+00 -0.39935536D-03 -0.00000000D+00 -0.00000000D+00  0.10419500D-02
  0.00000000D+00  0.00000000D+00  0.71690237D-07  0.73839626D-07  0.73839626D-07
  0.00000000D+00  0.00000000D+00 -0.00000000D+00  0.15900966D-05  0.15820747D-05
  0.15820747D-05 -0.00000000D+00 -0.00000000D+00  0.00000000D+00 -0.21061621D-02
 -0.48985878D-02  0.14292457D-01 -0.12563633D-01  0.22295495D-02  0.63097234D-02
  0.24229251D-02 -0.67116345D-02 -0.25694018D-02  0.39831921D-03  0.14222819D-05
 -0.00000000D+00  0.00000000D+00  0.12467522D-04  0.00000000D+00  0.00000000D+00
  0.39935536D-03  0.00000000D+00  0.00000000D+00 -0.10419500D-02 -0.00000000D+00
 -0.00000000D+00  0.71690237D-07  0.73839626D-07  0.73839626D-07 -0.00000000D+00
 -0.00000000D+00  0.00000000D+00  0.15900966D-05  0.15820747D-05  0.15820747D-05
  0.00000000D+00  0.00000000D+00 -0.00000000D+00
MO   18     MO 0.0        OCC NO =    0.0000000  ORB. ENERGY =    0.033776
  0.20611620D-04  0.41016612D-04 -0.10227898D-02  0.56634273D-02 -0.19234190D-01
 -0.22878870D-01 -0.51491642D-02  0.61400380D-02  0.11122841D-02  0.52134907D-04
 -0.24420190D-04 -0.00000000D+00 -0.00000000D+00 -0.26774519D-04 -0.00000000D+00
  0.00000000D+00  0.41340491D-03 -0.00000000D+00  0.00000000D+00 -0.57903434D-03
  0.00000000D+00 -0.00000000D+00 -0.40782454D-05 -0.40773955D-05 -0.40773955D-05
  0.00000000D+00  0.00000000D+00 -0.00000000D+00 -0.37146027D-04 -0.37128641D-04
 -0.37128641D-04 -0.00000000D+00  0.00000000D+00  0.00000000D+00 -0.20611620D-04
 -0.41016612D-04  0.10227898D-02 -0.56634273D-02  0.19234190D-01  0.22878870D-01
  0.51491642D-02 -0.61400380D-02 -0.11122841D-02 -0.52134907D-04 -0.24420190D-04
  0.00000000D+00  0.00000000D+00 -0.26774519D-04  0.00000000D+00 -0.00000000D+00
  0.41340491D-03  0.00000000D+00 -0.00000000D+00 -0.57903434D-03 -0.00000000D+00
  0.00000000D+00  0.40782454D-05  0.40773955D-05  0.40773955D-05 -0.00000000D+00
 -0.00000000D+00  0.00000000D+00  0.37146027D-04  0.37128641D-04  0.37128641D-04
  0.00000000D+00  0.00000000D+00 -0.00000000D+00
MO   19     MO 0.0        OCC NO =    0.0000000  ORB. ENERGY =    0.036982
 -0.00000000D+00  0.00000000D+00  0.00000000D+00  0.00000000D+00  0.00000000D+00
  0.00000000D+00  0.00000000D+00 -0.00000000D+00 -0.00000000D+00  0.00000000D+00
 -0.00000000D+00  0.00000000D+00 -0.00000000D+00  0.00000000D+00  0.00000000D+00
 -0.00000000D+00 -0.00000000D+00 -0.00000000D+00 -0.00000000D+00  0.00000000D+00
  0.00000000D+00  0.00000000D+00 -0.00000000D+00 -0.43289889D-07  0.43289889D-07
 -0.00000000D+00  0.00000000D+00  0.49808220D-08  0.00000000D+00  0.60477316D-06
 -0.60477316D-06  0.00000000D+00 -0.00000000D+00 -0.69583626D-07 -0.00000000D+00
  0.00000000D+00  0.00000000D+00 -0.00000000D+00 -0.00000000D+00 -0.00000000D+00
 -0.00000000D+00  0.00000000D+00  0.00000000D+00 -0.00000000D+00 -0.00000000D+00
  0.00000000D+00 -0.00000000D+00  0.00000000D+00  0.00000000D+00 -0.00000000D+00
 -0.00000000D+00  0.00000000D+00  0.00000000D+00  0.00000000D+00 -0.00000000D+00
 -0.00000000D+00  0.00000000D+00 -0.43289889D-07  0.43289889D-07  0.00000000D+00
 -0.00000000D+00  0.49808220D-08 -0.00000000D+00  0.60477316D-06 -0.60477316D-06
 -0.00000000D+00  0.00000000D+00 -0.69583626D-07
MO   20     MO 0.0        OCC NO =    0.0000000  ORB. ENERGY =    0.036982
  0.00000000D+00 -0.00000000D+00 -0.00000000D+00 -0.00000000D+00  0.00000000D+00
  0.00000000D+00  0.00000000D+00 -0.00000000D+00 -0.00000000D+00  0.00000000D+00
  0.00000000D+00 -0.00000000D+00  0.00000000D+00  0.00000000D+00 -0.00000000D+00
  0.00000000D+00 -0.00000000D+00 -0.00000000D+00  0.00000000D+00  0.00000000D+00
  0.00000000D+00 -0.00000000D+00  0.00000000D+00  0.24904112D-08 -0.24904112D-08
  0.00000000D+00 -0.00000000D+00  0.86579780D-07  0.00000000D+00 -0.34791818D-07
  0.34791818D-07  0.00000000D+00  0.00000000D+00 -0.12095463D-05  0.00000000D+00
 -0.00000000D+00 -0.00000000D+00  0.00000000D+00 -0.00000000D+00 -0.00000000D+00
 -0.00000000D+00  0.00000000D+00  0.00000000D+00 -0.00000000D+00  0.00000000D+00
 -0.00000000D+00  0.00000000D+00  0.00000000D+00 -0.00000000D+00  0.00000000D+00
 -0.00000000D+00  0.00000000D+00 -0.00000000D+00  0.00000000D+00 -0.00000000D+00
  0.00000000D+00 -0.00000000D+00  0.24904112D-08 -0.24904112D-08 -0.00000000D+00
  0.00000000D+00  0.86579780D-07 -0.00000000D+00 -0.34791818D-07  0.34791818D-07
 -0.00000000D+00 -0.00000000D+00 -0.12095463D-05
MO   21     MO 0.0        OCC NO =    0.0000000  ORB. ENERGY =    0.041053
  0.00000000D+00 -0.00000000D+00  0.00000000D+00 -0.00000000D+00  0.00000000D+00
 -0.00000000D+00 -0.00000000D+00  0.00000000D+00  0.00000000D+00 -0.00000000D+00
  0.00000000D+00  0.10617430D-06  0.19834505D-05 -0.00000000D+00 -0.27190532D-05
 -0.50794821D-04  0.00000000D+00  0.10223154D-04  0.19097946D-03 -0.00000000D+00
 -0.13962622D-04 -0.26083667D-03  0.00000000D+00  0.00000000D+00  0.00000000D+00
  0.16412689D-06  0.30660660D-05 -0.00000000D+00  0.00000000D+00  0.00000000D+00
  0.00000000D+00 -0.76808173D-06 -0.14348589D-04  0.00000000D+00 -0.00000000D+00
  0.00000000D+00 -0.00000000D+00  0.00000000D+00 -0.00000000D+00  0.00000000D+00
  0.00000000D+00 -0.00000000D+00 -0.00000000D+00  0.00000000D+00  0.00000000D+00
  0.10617430D-06  0.19834505D-05 -0.00000000D+00 -0.27190532D-05 -0.50794821D-04
 -0.00000000D+00  0.10223154D-04  0.19097946D-03 -0.00000000D+00 -0.13962622D-04
 -0.26083667D-03 -0.00000000D+00 -0.00000000D+00 -0.00000000D+00 -0.16412689D-06
 -0.30660660D-05  0.00000000D+00 -0.00000000D+00 -0.00000000D+00 -0.00000000D+00
  0.76808173D-06  0.14348589D-04 -0.00000000D+00
MO   22     MO 0.0        OCC NO =    0.0000000  ORB. ENERGY =    0.041053
 -0.00000000D+00  0.00000000D+00  0.00000000D+00 -0.00000000D+00  0.00000000D+00
 -0.00000000D+00 -0.00000000D+00  0.00000000D+00  0.00000000D+00 -0.00000000D+00
  0.00000000D+00  0.19834505D-05 -0.10617430D-06 -0.00000000D+00 -0.50794821D-04
  0.27190532D-05 -0.00000000D+00  0.19097946D-03 -0.10223154D-04 -0.00000000D+00
 -0.26083667D-03  0.13962622D-04  0.00000000D+00  0.00000000D+00  0.00000000D+00
  0.30660660D-05 -0.16412689D-06 -0.00000000D+00  0.00000000D+00  0.00000000D+00
  0.00000000D+00 -0.14348589D-04  0.76808173D-06  0.00000000D+00 -0.00000000D+00
  0.00000000D+00 -0.00000000D+00  0.00000000D+00 -0.00000000D+00  0.00000000D+00
 -0.00000000D+00 -0.00000000D+00 -0.00000000D+00  0.00000000D+00  0.00000000D+00
  0.19834505D-05 -0.10617430D-06 -0.00000000D+00 -0.50794821D-04  0.27190532D-05
 -0.00000000D+00  0.19097946D-03 -0.10223154D-04 -0.00000000D+00 -0.26083667D-03
  0.13962622D-04 -0.00000000D+00 -0.00000000D+00 -0.00000000D+00 -0.30660660D-05
  0.16412689D-06  0.00000000D+00 -0.00000000D+00 -0.00000000D+00 -0.00000000D+00
  0.14348589D-04 -0.76808173D-06 -0.00000000D+00
MO   23     MO 0.0        OCC NO =    0.0000000  ORB. ENERGY =    0.042375
 -0.24006137D-04  0.53436842D-04  0.47778749D-03 -0.46865986D-02  0.35990822D-02
 -0.83452640D-02 -0.11338844D-04  0.79589767D-03  0.57650112D-03 -0.11374458D-03
  0.26615623D-04  0.00000000D+00  0.00000000D+00 -0.85025554D-04  0.00000000D+00
 -0.00000000D+00 -0.46919173D-05 -0.00000000D+00 -0.00000000D+00 -0.70845791D-04
  0.00000000D+00  0.00000000D+00  0.71845840D-05  0.71878648D-05  0.71878648D-05
 -0.00000000D+00 -0.00000000D+00  0.00000000D+00  0.18368830D-04  0.18362874D-04
  0.18362874D-04  0.00000000D+00  0.00000000D+00 -0.00000000D+00  0.24006137D-04
 -0.53436842D-04 -0.47778749D-03  0.46865986D-02 -0.35990822D-02  0.83452640D-02
  0.11338844D-04 -0.79589767D-03 -0.57650112D-03  0.11374458D-03  0.26615623D-04
 -0.00000000D+00 -0.00000000D+00 -0.85025554D-04 -0.00000000D+00  0.00000000D+00
 -0.46919173D-05 -0.00000000D+00 -0.00000000D+00 -0.70845791D-04  0.00000000D+00
  0.00000000D+00 -0.71845840D-05 -0.71878648D-05 -0.71878648D-05  0.00000000D+00
  0.00000000D+00 -0.00000000D+00 -0.18368830D-04 -0.18362874D-04 -0.18362874D-04
 -0.00000000D+00 -0.00000000D+00  0.00000000D+00
MO   24     MO 0.0        OCC NO =    0.0000000  ORB. ENERGY =    0.044197
 -0.40655209D-02  0.23625291D-02  0.92669977D-03  0.50993961D-02 -0.16599722D-01
  0.22577071D-01 -0.31619377D-02 -0.57188576D-02 -0.60422185D-02  0.14895755D-02
 -0.28543375D-05 -0.00000000D+00  0.00000000D+00  0.10964792D-05  0.00000000D+00
 -0.00000000D+00  0.22606778D-04 -0.00000000D+00  0.00000000D+00  0.85403122D-04
  0.00000000D+00 -0.00000000D+00  0.18540817D-06  0.18986934D-06  0.18986934D-06
  0.00000000D+00 -0.00000000D+00  0.00000000D+00  0.13882657D-05  0.13395872D-05
  0.13395872D-05 -0.00000000D+00  0.00000000D+00 -0.00000000D+00 -0.40655209D-02
  0.23625291D-02  0.92669977D-03  0.50993961D-02 -0.16599722D-01  0.22577071D-01
 -0.31619377D-02 -0.57188576D-02 -0.60422185D-02  0.14895755D-02  0.28543375D-05
 -0.00000000D+00  0.00000000D+00 -0.10964792D-05  0.00000000D+00 -0.00000000D+00