 Molden2AIM, Version 3.1.0 (02/25/2015)           Time: Thu Oct 17 19:54:33 2024
GAUSSIAN             68 MOL ORBITALS     68 PRIMITIVES        2 NUCLEI
  Be   1    (CENTRE  1)   0.00000000  0.00000000  0.00000000  CHARGE =  4.0
  Be   2    (CENTRE  2)  34.20000000  0.00000000  0.00000000  CHARGE =  4.0
CENTRE ASSIGNMENTS    1  1  1  1  1  1  1  1  1  1  1  1  1  1  1  1  1  1  1  1
CENTRE ASSIGNMENTS    1  1  1  1  1  1  1  1  1  1  1  1  1  1  2  2  2  2  2  2
CENTRE ASSIGNMENTS    2  2  2  2  2  2  2  2  2  2  2  2  2  2  2  2  2  2  2  2
CENTRE ASSIGNMENTS    2  2  2  2  2  2  2  2
TYPE ASSIGNMENTS      1  1  1  1  1  1  1  1  1  1  2  3  4  2  3  4  2  3  4  2
TYPE ASSIGNMENTS      3  4  5  6  7  8  9 10  5  6  7  8  9 10  1  1  1  1  1  1
TYPE ASSIGNMENTS      1  1  1  1  2  3  4  2  3  4  2  3  4  2  3  4  5  6  7  8
TYPE ASSIGNMENTS      9 10  5  6  7  8  9 10
EXPONENTS  0.1000000D-03 0.3000000D-03 0.9000000D-03 0.2700000D-02 0.8100000D-02
EXPONENTS  0.2430000D-01 0.7290000D-01 0.2187000D+00 0.6561000D+00 0.1968300D+01
EXPONENTS  0.1000000D-03 0.1000000D-03 0.1000000D-03 0.3000000D-03 0.3000000D-03
EXPONENTS  0.3000000D-03 0.9000000D-03 0.9000000D-03 0.9000000D-03 0.2700000D-02
EXPONENTS  0.2700000D-02 0.2700000D-02 0.1000000D-03 0.1000000D-03 0.1000000D-03
EXPONENTS  0.1000000D-03 0.1000000D-03 0.1000000D-03 0.3000000D-03 0.3000000D-03
EXPONENTS  0.3000000D-03 0.3000000D-03 0.3000000D-03 0.3000000D-03 0.1000000D-03
EXPONENTS  0.3000000D-03 0.9000000D-03 0.2700000D-02 0.8100000D-02 0.2430000D-01
EXPONENTS  0.7290000D-01 0.2187000D+00 0.6561000D+00 0.1968300D+01 0.1000000D-03
EXPONENTS  0.1000000D-03 0.1000000D-03 0.3000000D-03 0.3000000D-03 0.3000000D-03
EXPONENTS  0.9000000D-03 0.9000000D-03 0.9000000D-03 0.2700000D-02 0.2700000D-02
EXPONENTS  0.2700000D-02 0.1000000D-03 0.1000000D-03 0.1000000D-03 0.1000000D-03
EXPONENTS  0.1000000D-03 0.1000000D-03 0.3000000D-03 0.3000000D-03 0.3000000D-03
EXPONENTS  0.3000000D-03 0.3000000D-03 0.3000000D-03
MO    1     MO 0.0        OCC NO =    1.0000000  ORB. ENERGY =   -0.003762
  0.52445145D-04 -0.10458198D-03 -0.36794398D-05 -0.19258080D-02 -0.53097853D-02
 -0.83284866D-02 -0.11931514D-01  0.21939357D-01  0.33971424D-02 -0.10255251D-03
 -0.37092669D-05  0.00000000D+00  0.00000000D+00  0.50446670D-05 -0.00000000D+00
 -0.00000000D+00 -0.11677057D-04  0.00000000D+00 -0.00000000D+00  0.98136393D-05
 -0.00000000D+00  0.00000000D+00 -0.12613072D-07  0.38349672D-09  0.38349672D-09
  0.00000000D+00  0.00000000D+00 -0.00000000D+00  0.53601462D-07  0.10850710D-07
  0.10850710D-07 -0.00000000D+00 -0.00000000D+00  0.00000000D+00  0.52445145D-04
 -0.10458198D-03 -0.36794398D-05 -0.19258080D-02 -0.53097853D-02 -0.83284866D-02
 -0.11931514D-01  0.21939357D-01  0.33971424D-02 -0.10255251D-03  0.37092669D-05
 -0.00000000D+00 -0.00000000D+00 -0.50446670D-05  0.00000000D+00  0.00000000D+00
  0.11677057D-04 -0.00000000D+00 -0.00000000D+00 -0.98136393D-05  0.00000000D+00
  0.00000000D+00 -0.12613072D-07  0.38349672D-09  0.38349672D-09  0.00000000D+00
  0.00000000D+00  0.00000000D+00  0.53601462D-07  0.10850710D-07  0.10850710D-07
 -0.00000000D+00  0.00000000D+00 -0.00000000D+00
MO    2     MO 0.0        OCC NO =    0.0000000  ORB. ENERGY =   -0.003262
  0.14914502D-05  0.13006019D-04  0.13701263D-03  0.25343606D-02  0.52439395D-02
  0.91860811D-02  0.12246130D-01 -0.22871806D-01 -0.36945866D-02  0.15628629D-03
 -0.15015236D-06 -0.00000000D+00 -0.00000000D+00 -0.10935898D-05  0.00000000D+00
  0.00000000D+00  0.15808158D-04  0.00000000D+00  0.00000000D+00  0.39442315D-05
 -0.00000000D+00 -0.00000000D+00 -0.26709014D-08 -0.12957988D-08 -0.12957988D-08
 -0.00000000D+00 -0.00000000D+00  0.00000000D+00 -0.31233921D-07 -0.40516861D-07
 -0.40516861D-07  0.00000000D+00  0.00000000D+00  0.00000000D+00 -0.14914502D-05
 -0.13006019D-04 -0.13701263D-03 -0.25343606D-02 -0.52439395D-02 -0.91860811D-02
 -0.12246130D-01  0.22871806D-01  0.36945866D-02 -0.15628629D-03 -0.15015236D-06
  0.00000000D+00  0.00000000D+00 -0.10935898D-05 -0.00000000D+00 -0.00000000D+00
  0.15808158D-04  0.00000000D+00 -0.00000000D+00  0.39442315D-05 -0.00000000D+00
  0.00000000D+00  0.26709014D-08  0.12957988D-08  0.12957988D-08 -0.00000000D+00
 -0.00000000D+00  0.00000000D+00  0.31233921D-07  0.40516861D-07  0.40516861D-07
  0.00000000D+00  0.00000000D+00 -0.00000000D+00
MO    3     MO 0.0        OCC NO =    0.0000000  ORB. ENERGY =    0.004129
 -0.51602552D-03 -0.46319590D-04  0.39431665D-02 -0.63359164D-02 -0.80935354D-03
 -0.48993762D-02 -0.36027388D-02  0.78727837D-02  0.17416299D-02 -0.20248762D-03
  0.23164774D-04  0.00000000D+00 -0.00000000D+00 -0.28692695D-04 -0.00000000D+00
 -0.00000000D+00  0.10860588D-03  0.00000000D+00 -0.00000000D+00 -0.43619082D-04
 -0.00000000D+00  0.00000000D+00  0.84207719D-07  0.39814576D-08  0.39814576D-08
  0.00000000D+00 -0.00000000D+00 -0.00000000D+00 -0.11927502D-06  0.95456691D-07
  0.95456691D-07 -0.00000000D+00 -0.00000000D+00  0.00000000D+00 -0.51602552D-03
 -0.46319590D-04  0.39431665D-02 -0.63359164D-02 -0.80935354D-03 -0.48993762D-02
 -0.36027388D-02  0.78727837D-02  0.17416299D-02 -0.20248762D-03 -0.23164774D-04
 -0.00000000D+00  0.00000000D+00  0.28692695D-04  0.00000000D+00  0.00000000D+00
 -0.10860588D-03 -0.00000000D+00  0.00000000D+00  0.43619082D-04  0.00000000D+00
 -0.00000000D+00  0.84207719D-07  0.39814576D-08  0.39814576D-08  0.00000000D+00
 -0.00000000D+00 -0.00000000D+00 -0.11927502D-06  0.95456691D-07  0.95456691D-07
 -0.00000000D+00 -0.00000000D+00  0.00000000D+00
MO    4     MO 0.0        OCC NO =    0.0000000  ORB. ENERGY =    0.005482
 -0.00000000D+00  0.00000000D+00 -0.00000000D+00  0.00000000D+00 -0.00000000D+00
  0.00000000D+00 -0.00000000D+00  0.00000000D+00 -0.00000000D+00  0.00000000D+00
  0.00000000D+00 -0.11080061D-06  0.36512913D-06 -0.00000000D+00  0.14227813D-05
 -0.46885897D-05 -0.00000000D+00 -0.20253809D-04  0.66743784D-04  0.00000000D+00
 -0.95797152D-04  0.31568700D-03  0.00000000D+00 -0.00000000D+00 -0.00000000D+00
  0.14018917D-09 -0.46196998D-09 -0.00000000D+00 -0.00000000D+00 -0.00000000D+00
 -0.00000000D+00 -0.15775487D-07  0.51986079D-07  0.00000000D+00 -0.00000000D+00
  0.00000000D+00  0.00000000D+00 -0.00000000D+00 -0.00000000D+00  0.00000000D+00
  0.00000000D+00 -0.00000000D+00  0.00000000D+00 -0.00000000D+00 -0.00000000D+00
 -0.11080061D-06  0.36512913D-06  0.00000000D+00  0.14227813D-05 -0.46885897D-05
 -0.00000000D+00 -0.20253809D-04  0.66743784D-04  0.00000000D+00 -0.95797152D-04
  0.31568700D-03  0.00000000D+00  0.00000000D+00  0.00000000D+00 -0.14018917D-09
  0.46196998D-09  0.00000000D+00 -0.00000000D+00 -0.00000000D+00 -0.00000000D+00
  0.15775487D-07 -0.51986079D-07 -0.00000000D+00
MO    5     MO 0.0        OCC NO =    0.0000000  ORB. ENERGY =    0.005482
 -0.00000000D+00 -0.00000000D+00  0.00000000D+00 -0.00000000D+00 -0.00000000D+00
  0.00000000D+00 -0.00000000D+00  0.00000000D+00 -0.00000000D+00  0.00000000D+00
  0.00000000D+00 -0.36512913D-06 -0.11080061D-06  0.00000000D+00  0.46885897D-05
  0.14227813D-05  0.00000000D+00 -0.66743784D-04 -0.20253809D-04  0.00000000D+00
 -0.31568700D-03 -0.95797152D-04  0.00000000D+00  0.00000000D+00  0.00000000D+00
  0.46196998D-09  0.14018917D-09  0.00000000D+00  0.00000000D+00  0.00000000D+00
  0.00000000D+00 -0.51986079D-07 -0.15775487D-07 -0.00000000D+00 -0.00000000D+00
 -0.00000000D+00 -0.00000000D+00  0.00000000D+00 -0.00000000D+00  0.00000000D+00
 -0.00000000D+00 -0.00000000D+00  0.00000000D+00 -0.00000000D+00 -0.00000000D+00
 -0.36512913D-06 -0.11080061D-06 -0.00000000D+00  0.46885897D-05  0.14227813D-05
  0.00000000D+00 -0.66743784D-04 -0.20253809D-04 -0.00000000D+00 -0.31568700D-03
 -0.95797152D-04 -0.00000000D+00 -0.00000000D+00 -0.00000000D+00 -0.46196998D-09
 -0.14018917D-09 -0.00000000D+00  0.00000000D+00  0.00000000D+00  0.00000000D+00
  0.51986079D-07  0.15775487D-07  0.00000000D+00
MO    6     MO 0.0        OCC NO =    0.0000000  ORB. ENERGY =    0.007947
 -0.00000000D+00 -0.00000000D+00  0.00000000D+00  0.00000000D+00 -0.00000000D+00
  0.00000000D+00 -0.00000000D+00  0.00000000D+00  0.00000000D+00 -0.00000000D+00
 -0.00000000D+00 -0.76847540D-05 -0.97844845D-05 -0.00000000D+00  0.46851173D-05
  0.59652470D-05  0.00000000D+00 -0.20728216D-04 -0.26391855D-04 -0.00000000D+00
 -0.39313810D-03 -0.50055652D-03 -0.00000000D+00  0.00000000D+00  0.00000000D+00
 -0.25766298D-07 -0.32806511D-07  0.00000000D+00 -0.00000000D+00 -0.00000000D+00
 -0.00000000D+00  0.22916772D-07  0.29178403D-07 -0.00000000D+00  0.00000000D+00
  0.00000000D+00 -0.00000000D+00  0.00000000D+00  0.00000000D+00 -0.00000000D+00
  0.00000000D+00 -0.00000000D+00  0.00000000D+00 -0.00000000D+00 -0.00000000D+00
  0.76847540D-05  0.97844845D-05 -0.00000000D+00 -0.46851173D-05 -0.59652470D-05
  0.00000000D+00  0.20728216D-04  0.26391855D-04  0.00000000D+00  0.39313810D-03
  0.50055652D-03  0.00000000D+00 -0.00000000D+00 -0.00000000D+00 -0.25766298D-07
 -0.32806511D-07 -0.00000000D+00  0.00000000D+00  0.00000000D+00  0.00000000D+00
  0.22916772D-07  0.29178403D-07  0.00000000D+00
MO    7     MO 0.0        OCC NO =    0.0000000  ORB. ENERGY =    0.007947
  0.00000000D+00 -0.00000000D+00  0.00000000D+00 -0.00000000D+00  0.00000000D+00
 -0.00000000D+00  0.00000000D+00 -0.00000000D+00 -0.00000000D+00  0.00000000D+00
  0.00000000D+00  0.97844845D-05 -0.76847540D-05 -0.00000000D+00 -0.59652470D-05
  0.46851173D-05  0.00000000D+00  0.26391855D-04 -0.20728216D-04  0.00000000D+00
  0.50055652D-03 -0.39313810D-03  0.00000000D+00 -0.00000000D+00 -0.00000000D+00
  0.32806511D-07 -0.25766298D-07  0.00000000D+00 -0.00000000D+00 -0.00000000D+00
 -0.00000000D+00 -0.29178403D-07  0.22916772D-07  0.00000000D+00 -0.00000000D+00
  0.00000000D+00 -0.00000000D+00  0.00000000D+00  0.00000000D+00 -0.00000000D+00
  0.00000000D+00 -0.00000000D+00  0.00000000D+00 -0.00000000D+00  0.00000000D+00
 -0.97844845D-05  0.76847540D-05 -0.00000000D+00  0.59652470D-05 -0.46851173D-05
  0.00000000D+00 -0.26391855D-04  0.20728216D-04 -0.00000000D+00 -0.50055652D-03
  0.39313810D-03 -0.00000000D+00  0.00000000D+00  0.00000000D+00  0.32806511D-07
 -0.25766298D-07 -0.00000000D+00  0.00000000D+00  0.00000000D+00  0.00000000D+00
 -0.29178403D-07  0.22916772D-07  0.00000000D+00
MO    8     MO 0.0        OCC NO =    0.0000000  ORB. ENERGY =    0.008773
  0.17169438D-04 -0.13225586D-04 -0.11565030D-01 -0.13172051D-02  0.10664637D-01
  0.81016629D-03  0.80575068D-02 -0.12106655D-01 -0.86802232D-03 -0.28153086D-03
 -0.18323773D-05 -0.00000000D+00 -0.00000000D+00  0.18137028D-05  0.00000000D+00
  0.00000000D+00 -0.26088088D-03 -0.00000000D+00 -0.00000000D+00 -0.20978851D-03
 -0.00000000D+00 -0.00000000D+00 -0.16336353D-07 -0.30651702D-07 -0.30651702D-07
 -0.00000000D+00 -0.00000000D+00  0.00000000D+00 -0.29308516D-06 -0.12059979D-06
 -0.12059979D-06  0.00000000D+00  0.00000000D+00 -0.00000000D+00 -0.17169438D-04
  0.13225586D-04  0.11565030D-01  0.13172051D-02 -0.10664637D-01 -0.81016629D-03
 -0.80575068D-02  0.12106655D-01  0.86802232D-03  0.28153086D-03 -0.18323773D-05
  0.00000000D+00  0.00000000D+00  0.18137028D-05 -0.00000000D+00 -0.00000000D+00
 -0.26088088D-03  0.00000000D+00  0.00000000D+00 -0.20978851D-03 -0.00000000D+00
  0.00000000D+00  0.16336353D-07  0.30651702D-07  0.30651702D-07 -0.00000000D+00
 -0.00000000D+00  0.00000000D+00  0.29308516D-06  0.12059979D-06  0.12059979D-06
  0.00000000D+00  0.00000000D+00 -0.00000000D+00
MO    9     MO 0.0        OCC NO =    0.0000000  ORB. ENERGY =    0.009208
 -0.22359543D-03  0.40096245D-03  0.12008063D-02 -0.48882441D-02  0.60678319D-02
 -0.20755754D-02  0.36768642D-02 -0.42226277D-02  0.31689663D-03 -0.29939080D-03
  0.18108249D-04  0.00000000D+00 -0.00000000D+00 -0.20141551D-04 -0.00000000D+00
  0.00000000D+00  0.82640422D-04  0.00000000D+00 -0.00000000D+00 -0.61805092D-03
 -0.00000000D+00  0.00000000D+00  0.60126004D-07 -0.29802444D-08 -0.29802444D-08
  0.00000000D+00 -0.00000000D+00 -0.00000000D+00 -0.22108855D-06 -0.68701190D-07
 -0.68701190D-07 -0.00000000D+00  0.00000000D+00  0.00000000D+00 -0.22359543D-03
  0.40096245D-03  0.12008063D-02 -0.48882441D-02  0.60678319D-02 -0.20755754D-02
  0.36768642D-02 -0.42226277D-02  0.31689663D-03 -0.29939080D-03 -0.18108249D-04
 -0.00000000D+00  0.00000000D+00  0.20141551D-04  0.00000000D+00 -0.00000000D+00
 -0.82640422D-04 -0.00000000D+00  0.00000000D+00  0.61805092D-03  0.00000000D+00
 -0.00000000D+00  0.60126004D-07 -0.29802444D-08 -0.29802444D-08  0.00000000D+00
 -0.00000000D+00 -0.00000000D+00 -0.22108855D-06 -0.68701190D-07 -0.68701190D-07
 -0.00000000D+00  0.00000000D+00  0.00000000D+00
MO   10     MO 0.0        OCC NO =    0.0000000  ORB. ENERGY =    0.012604
 -0.22877298D-03  0.44931240D-03  0.11592254D-02 -0.14001507D-01  0.19502689D-01
 -0.54036922D-03  0.11597238D-01 -0.16517884D-01 -0.78507420D-03 -0.51704989D-03
  0.21936052D-04  0.00000000D+00 -0.00000000D+00 -0.15763409D-04 -0.00000000D+00
 -0.00000000D+00  0.10356761D-03  0.00000000D+00  0.00000000D+00  0.29649889D-04
 -0.00000000D+00 -0.00000000D+00  0.70886938D-07 -0.48613086D-08 -0.48613086D-08
  0.00000000D+00 -0.00000000D+00  0.00000000D+00 -0.20346857D-06 -0.11922873D-06
 -0.11922873D-06  0.00000000D+00  0.00000000D+00 -0.00000000D+00 -0.22877298D-03
  0.44931240D-03  0.11592254D-02 -0.14001507D-01  0.19502689D-01 -0.54036922D-03
  0.11597238D-01 -0.16517884D-01 -0.78507420D-03 -0.51704989D-03 -0.21936052D-04
 -0.00000000D+00  0.00000000D+00  0.15763409D-04 -0.00000000D+00 -0.00000000D+00
 -0.10356761D-03  0.00000000D+00  0.00000000D+00 -0.29649889D-04 -0.00000000D+00
 -0.00000000D+00  0.70886938D-07 -0.48613086D-08 -0.48613086D-08  0.00000000D+00
 -0.00000000D+00 -0.00000000D+00 -0.20346857D-06 -0.11922873D-06 -0.11922873D-06
 -0.00000000D+00 -0.00000000D+00  0.00000000D+00
MO   11     MO 0.0        OCC NO =    0.0000000  ORB. ENERGY =    0.012606
  0.00000000D+00 -0.00000000D+00 -0.00000000D+00  0.00000000D+00 -0.00000000D+00
  0.00000000D+00 -0.00000000D+00  0.00000000D+00  0.00000000D+00  0.00000000D+00
 -0.00000000D+00  0.36074870D-07  0.93154468D-06  0.00000000D+00 -0.48211445D-06
 -0.12449415D-04 -0.00000000D+00  0.82460396D-05  0.21293364D-03 -0.00000000D+00
 -0.31654811D-04 -0.81740759D-03 -0.00000000D+00  0.00000000D+00  0.00000000D+00
 -0.82274719D-11 -0.21244040D-09 -0.00000000D+00  0.00000000D+00  0.00000000D+00
  0.00000000D+00  0.47582047D-08  0.12286878D-06  0.00000000D+00  0.00000000D+00
 -0.00000000D+00 -0.00000000D+00  0.00000000D+00 -0.00000000D+00  0.00000000D+00
 -0.00000000D+00  0.00000000D+00  0.00000000D+00  0.00000000D+00  0.00000000D+00
  0.36074870D-07  0.93154468D-06 -0.00000000D+00 -0.48211445D-06 -0.12449415D-04
  0.00000000D+00  0.82460396D-05  0.21293364D-03  0.00000000D+00 -0.31654811D-04
 -0.81740759D-03 -0.00000000D+00  0.00000000D+00  0.00000000D+00  0.82274719D-11
  0.21244040D-09  0.00000000D+00  0.00000000D+00  0.00000000D+00  0.00000000D+00
 -0.47582047D-08 -0.12286878D-06 -0.00000000D+00
MO   12     MO 0.0        OCC NO =    0.0000000  ORB. ENERGY =    0.012606
  0.00000000D+00 -0.00000000D+00 -0.00000000D+00  0.00000000D+00 -0.00000000D+00
  0.00000000D+00 -0.00000000D+00  0.00000000D+00 -0.00000000D+00  0.00000000D+00
 -0.00000000D+00 -0.93154468D-06  0.36074870D-07  0.00000000D+00  0.12449415D-04
 -0.48211445D-06 -0.00000000D+00 -0.21293364D-03  0.82460396D-05  0.00000000D+00
  0.81740759D-03 -0.31654811D-04 -0.00000000D+00  0.00000000D+00  0.00000000D+00
  0.21244040D-09 -0.82274719D-11  0.00000000D+00  0.00000000D+00  0.00000000D+00
  0.00000000D+00 -0.12286878D-06  0.47582047D-08 -0.00000000D+00  0.00000000D+00
 -0.00000000D+00 -0.00000000D+00  0.00000000D+00 -0.00000000D+00  0.00000000D+00
 -0.00000000D+00  0.00000000D+00 -0.00000000D+00  0.00000000D+00  0.00000000D+00
 -0.93154468D-06  0.36074870D-07 -0.00000000D+00  0.12449415D-04 -0.48211445D-06
  0.00000000D+00 -0.21293364D-03  0.82460396D-05  0.00000000D+00  0.81740759D-03
 -0.31654811D-04 -0.00000000D+00 -0.00000000D+00 -0.00000000D+00 -0.21244040D-09
  0.82274719D-11 -0.00000000D+00 -0.00000000D+00 -0.00000000D+00 -0.00000000D+00
  0.12286878D-06 -0.47582047D-08  0.00000000D+00
MO   13     MO 0.0        OCC NO =    0.0000000  ORB. ENERGY =    0.013172
  0.12379837D-04  0.20997673D-04 -0.56610295D-02  0.80011568D-03 -0.12497301D-03
 -0.33784835D-02 -0.89213207D-03  0.30511808D-02  0.10287957D-02 -0.19037176D-03
 -0.12994358D-05  0.00000000D+00 -0.00000000D+00 -0.13227104D-05 -0.00000000D+00
 -0.00000000D+00 -0.10070311D-03 -0.00000000D+00 -0.00000000D+00 -0.10244297D-02
  0.00000000D+00 -0.00000000D+00 -0.14846548D-07 -0.19159389D-07 -0.19159389D-07
  0.00000000D+00 -0.00000000D+00  0.00000000D+00 -0.21969418D-06 -0.15193715D-06
 -0.15193715D-06 -0.00000000D+00 -0.00000000D+00 -0.00000000D+00 -0.12379837D-04
 -0.20997673D-04  0.56610295D-02 -0.80011568D-03  0.12497301D-03  0.33784835D-02
  0.89213207D-03 -0.30511808D-02 -0.10287957D-02  0.19037176D-03 -0.12994358D-05
 -0.00000000D+00  0.00000000D+00 -0.13227104D-05  0.00000000D+00  0.00000000D+00
 -0.10070311D-03 -0.00000000D+00  0.00000000D+00 -0.10244297D-02  0.00000000D+00
 -0.00000000D+00  0.14846548D-07  0.19159389D-07  0.19159389D-07  0.00000000D+00
 -0.00000000D+00 -0.00000000D+00  0.21969418D-06  0.15193715D-06  0.15193715D-06
 -0.00000000D+00 -0.00000000D+00  0.00000000D+00
MO   14     MO 0.0        OCC NO =    0.0000000  ORB. ENERGY =    0.017699
 -0.83771330D-05  0.67903424D-04  0.18598902D-01 -0.25037256D-01  0.25620031D-01
 -0.41268415D-02  0.11689973D-01 -0.14838892D-01  0.13169345D-03 -0.73817911D-03
  0.94303919D-06 -0.00000000D+00  0.00000000D+00 -0.42481922D-05  0.00000000D+00
  0.00000000D+00  0.43489939D-03 -0.00000000D+00  0.00000000D+00 -0.37649841D-03
  0.00000000D+00 -0.00000000D+00  0.11861836D-08  0.20919743D-07  0.20919743D-07
 -0.00000000D+00  0.00000000D+00 -0.00000000D+00  0.16039307D-06 -0.53923712D-07
 -0.53923712D-07  0.00000000D+00  0.00000000D+00  0.00000000D+00  0.83771330D-05
 -0.67903424D-04 -0.18598902D-01  0.25037256D-01 -0.25620031D-01  0.41268415D-02
 -0.11689973D-01  0.14838892D-01 -0.13169345D-03  0.73817911D-03  0.94303919D-06
  0.00000000D+00 -0.00000000D+00 -0.42481922D-05 -0.00000000D+00 -0.00000000D+00
  0.43489939D-03  0.00000000D+00 -0.00000000D+00 -0.37649841D-03 -0.00000000D+00
  0.00000000D+00 -0.11861836D-08 -0.20919743D-07 -0.20919743D-07 -0.00000000D+00
  0.00000000D+00  0.00000000D+00 -0.16039307D-06  0.53923712D-07  0.53923712D-07
  0.00000000D+00  0.00000000D+00 -0.00000000D+00
MO   15     MO 0.0        OCC NO =    0.0000000  ORB. ENERGY =    0.018723
  0.00000000D+00  0.00000000D+00  0.00000000D+00 -0.00000000D+00  0.00000000D+00
 -0.00000000D+00  0.00000000D+00 -0.00000000D+00 -0.00000000D+00 -0.00000000D+00
  0.00000000D+00  0.83286985D-04  0.10342329D-03  0.00000000D+00 -0.71423661D-04
 -0.88691768D-04  0.00000000D+00  0.25496850D-03  0.31661227D-03 -0.00000000D+00
 -0.47770798D-03 -0.59320350D-03  0.00000000D+00  0.00000000D+00  0.00000000D+00
  0.28188420D-06  0.35003538D-06  0.00000000D+00  0.00000000D+00  0.00000000D+00
  0.00000000D+00 -0.50345690D-06 -0.62517774D-06 -0.00000000D+00 -0.00000000D+00
 -0.00000000D+00 -0.00000000D+00  0.00000000D+00 -0.00000000D+00  0.00000000D+00
 -0.00000000D+00  0.00000000D+00  0.00000000D+00  0.00000000D+00  0.00000000D+00
 -0.83286985D-04 -0.10342329D-03  0.00000000D+00  0.71423661D-04  0.88691768D-04
  0.00000000D+00 -0.25496850D-03 -0.31661227D-03 -0.00000000D+00  0.47770798D-03
  0.59320350D-03  0.00000000D+00 -0.00000000D+00 -0.00000000D+00  0.28188420D-06
  0.35003538D-06 -0.00000000D+00 -0.00000000D+00 -0.00000000D+00 -0.00000000D+00
 -0.50345690D-06 -0.62517774D-06 -0.00000000D+00
MO   16     MO 0.0        OCC NO =    0.0000000  ORB. ENERGY =    0.018723
 -0.00000000D+00  0.00000000D+00 -0.00000000D+00  0.00000000D+00 -0.00000000D+00
  0.00000000D+00 -0.00000000D+00  0.00000000D+00  0.00000000D+00  0.00000000D+00
 -0.00000000D+00 -0.10342329D-03  0.83286985D-04  0.00000000D+00  0.88691768D-04
 -0.71423661D-04 -0.00000000D+00 -0.31661227D-03  0.25496850D-03  0.00000000D+00
  0.59320350D-03 -0.47770798D-03 -0.00000000D+00  0.00000000D+00  0.00000000D+00
 -0.35003538D-06  0.28188420D-06 -0.00000000D+00  0.00000000D+00  0.00000000D+00
  0.00000000D+00  0.62517774D-06 -0.50345690D-06  0.00000000D+00  0.00000000D+00
 -0.00000000D+00  0.00000000D+00 -0.00000000D+00  0.00000000D+00 -0.00000000D+00
  0.00000000D+00 -0.00000000D+00  0.00000000D+00 -0.00000000D+00  0.00000000D+00
  0.10342329D-03 -0.83286985D-04  0.00000000D+00 -0.88691768D-04  0.71423661D-04
 -0.00000000D+00  0.31661227D-03 -0.25496850D-03  0.00000000D+00 -0.59320350D-03
  0.47770798D-03 -0.00000000D+00  0.00000000D+00  0.00000000D+00 -0.35003538D-06
  0.28188420D-06  0.00000000D+00 -0.00000000D+00  0.00000000D+00  0.00000000D+00
  0.62517774D-06 -0.50345690D-06 -0.00000000D+00
MO   17     MO 0.0        OCC NO =    0.0000000  ORB. ENERGY =    0.022746
 -0.11553186D-02  0.26704941D-02 -0.66319588D-02  0.10147831D-01 -0.86434149D-02
 -0.15220196D-02 -0.34689244D-02  0.58045971D-02  0.72581812D-03  0.40078265D-04
  0.84547986D-04  0.00000000D+00 -0.00000000D+00 -0.90547015D-04 -0.00000000D+00
  0.00000000D+00  0.28688629D-03 -0.00000000D+00 -0.00000000D+00 -0.55276276D-03
  0.00000000D+00 -0.00000000D+00  0.28613319D-06 -0.96557039D-08 -0.96557039D-08
  0.00000000D+00 -0.00000000D+00  0.00000000D+00 -0.10510675D-05 -0.33989120D-06
 -0.33989120D-06 -0.00000000D+00  0.00000000D+00 -0.00000000D+00 -0.11553186D-02
  0.26704941D-02 -0.66319588D-02  0.10147831D-01 -0.86434149D-02 -0.15220196D-02
 -0.34689244D-02  0.58045971D-02  0.72581812D-03  0.40078265D-04 -0.84547986D-04
 -0.00000000D+00  0.00000000D+00  0.90547015D-04  0.00000000D+00 -0.00000000D+00
 -0.28688629D-03  0.00000000D+00  0.00000000D+00  0.55276276D-03 -0.00000000D+00
  0.00000000D+00  0.28613319D-06 -0.96557039D-08 -0.96557039D-08  0.00000000D+00
 -0.00000000D+00 -0.00000000D+00 -0.10510675D-05 -0.33989120D-06 -0.33989120D-06
 -0.00000000D+00  0.00000000D+00  0.00000000D+00
MO   18     MO 0.0        OCC NO =    0.0000000  ORB. ENERGY =    0.025462
  0.50684684D-04  0.53293785D-03  0.12709750D-01 -0.15029806D-02  0.11288790D-02
 -0.20631200D-02  0.24979254D-03  0.64802744D-03  0.50753962D-03 -0.13205457D-03
 -0.50651822D-05 -0.00000000D+00 -0.00000000D+00 -0.43473775D-04  0.00000000D+00
  0.00000000D+00  0.91584190D-03 -0.00000000D+00 -0.00000000D+00 -0.84176242D-03
  0.00000000D+00 -0.00000000D+00 -0.96206540D-07 -0.43660373D-07 -0.43660373D-07
 -0.00000000D+00 -0.00000000D+00  0.00000000D+00 -0.11100573D-05 -0.14411832D-05
 -0.14411832D-05  0.00000000D+00  0.00000000D+00 -0.00000000D+00 -0.50684684D-04
 -0.53293785D-03 -0.12709750D-01  0.15029806D-02 -0.11288790D-02  0.20631200D-02
 -0.24979254D-03 -0.64802744D-03 -0.50753962D-03  0.13205457D-03 -0.50651822D-05
  0.00000000D+00  0.00000000D+00 -0.43473775D-04 -0.00000000D+00 -0.00000000D+00
  0.91584190D-03  0.00000000D+00  0.00000000D+00 -0.84176242D-03 -0.00000000D+00
  0.00000000D+00  0.96206540D-07  0.43660373D-07  0.43660373D-07 -0.00000000D+00
 -0.00000000D+00 -0.00000000D+00  0.11100573D-05  0.14411832D-05  0.14411832D-05
  0.00000000D+00  0.00000000D+00  0.00000000D+00
MO   19     MO 0.0        OCC NO =    0.0000000  ORB. ENERGY =    0.029000
  0.36539187D-02  0.35510291D-02 -0.17677546D-01  0.17846987D-01 -0.82440670D-02
 -0.56074102D-02 -0.18666407D-02  0.56183165D-02  0.17616798D-02 -0.29884600D-03
 -0.67166263D-04 -0.00000000D+00  0.00000000D+00  0.14197242D-03  0.00000000D+00
 -0.00000000D+00 -0.56393119D-04 -0.00000000D+00  0.00000000D+00  0.13027805D-03
  0.00000000D+00  0.00000000D+00 -0.32357628D-06 -0.86059374D-07 -0.86059374D-07
 -0.00000000D+00  0.00000000D+00 -0.00000000D+00 -0.53608081D-06 -0.18600576D-05
 -0.18600576D-05  0.00000000D+00 -0.00000000D+00  0.00000000D+00  0.36539187D-02
  0.35510291D-02 -0.17677546D-01  0.17846987D-01 -0.82440670D-02 -0.56074102D-02
 -0.18666407D-02  0.56183165D-02  0.17616798D-02 -0.29884600D-03  0.67166263D-04
  0.00000000D+00 -0.00000000D+00 -0.14197242D-03 -0.00000000D+00  0.00000000D+00
  0.56393119D-04  0.00000000D+00 -0.00000000D+00 -0.13027805D-03 -0.00000000D+00
  0.00000000D+00 -0.32357628D-06 -0.86059374D-07 -0.86059374D-07 -0.00000000D+00
  0.00000000D+00  0.00000000D+00 -0.53608081D-06 -0.18600576D-05 -0.18600576D-05
  0.00000000D+00 -0.00000000D+00 -0.00000000D+00
MO   20     MO 0.0        OCC NO =    0.0000000  ORB. ENERGY =    0.038255
 -0.37447823D-03 -0.63006932D-03  0.16060960D-01 -0.10312241D-01 -0.79109343D-03
  0.13883288D-01 -0.19334139D-02 -0.39277078D-02 -0.33278276D-02  0.87099166D-03
  0.37776373D-04  0.00000000D+00  0.00000000D+00  0.20913660D-04 -0.00000000D+00
 -0.00000000D+00 -0.21592789D-03  0.00000000D+00  0.00000000D+00  0.23684923D-03
 -0.00000000D+00 -0.00000000D+00  0.63437126D-06  0.61527996D-06  0.61527996D-06
  0.00000000D+00  0.00000000D+00 -0.00000000D+00  0.49327004D-05  0.46920679D-05
  0.46920679D-05 -0.00000000D+00 -0.00000000D+00  0.00000000D+00  0.37447823D-03
  0.63006932D-03 -0.16060960D-01  0.10312241D-01  0.79109343D-03 -0.13883288D-01
  0.19334139D-02  0.39277078D-02  0.33278276D-02 -0.87099166D-03  0.37776373D-04
 -0.00000000D+00 -0.00000000D+00  0.20913660D-04  0.00000000D+00  0.00000000D+00
 -0.21592789D-03 -0.00000000D+00 -0.00000000D+00  0.23684923D-03  0.00000000D+00
  0.00000000D+00 -0.63437126D-06 -0.61527996D-06 -0.61527996D-06  0.00000000D+00
  0.00000000D+00  0.00000000D+00 -0.49327004D-05 -0.46920679D-05 -0.46920679D-05
 -0.00000000D+00 -0.00000000D+00 -0.00000000D+00
MO   21     MO 0.0        OCC NO =    0.0000000  ORB. ENERGY =    0.039504
  0.00000000D+00 -0.00000000D+00 -0.00000000D+00  0.00000000D+00  0.00000000D+00
 -0.00000000D+00  0.00000000D+00  0.00000000D+00  0.00000000D+00 -0.00000000D+00
 -0.00000000D+00  0.00000000D+00 -0.00000000D+00  0.00000000D+00 -0.00000000D+00
  0.00000000D+00  0.00000000D+00  0.00000000D+00  0.00000000D+00 -0.00000000D+00
 -0.00000000D+00 -0.00000000D+00 -0.00000000D+00 -0.46793134D-07  0.46793134D-07
  0.00000000D+00 -0.00000000D+00  0.13367849D-07 -0.00000000D+00  0.63229685D-06
 -0.63229685D-06 -0.00000000D+00  0.00000000D+00 -0.18063439D-06  0.00000000D+00
 -0.00000000D+00  0.00000000D+00 -0.00000000D+00  0.00000000D+00  0.00000000D+00
  0.00000000D+00 -0.00000000D+00 -0.00000000D+00  0.00000000D+00  0.00000000D+00
 -0.00000000D+00  0.00000000D+00 -0.00000000D+00  0.00000000D+00 -0.00000000D+00
  0.00000000D+00 -0.00000000D+00  0.00000000D+00 -0.00000000D+00  0.00000000D+00
 -0.00000000D+00  0.00000000D+00 -0.46793134D-07  0.46793134D-07  0.00000000D+00
 -0.00000000D+00  0.13367849D-07  0.00000000D+00  0.63229685D-06 -0.63229685D-06
 -0.00000000D+00  0.00000000D+00 -0.18063439D-06
MO   22     MO 0.0        OCC NO =    0.0000000  ORB. ENERGY =    0.039504
  0.00000000D+00  0.00000000D+00 -0.00000000D+00  0.00000000D+00  0.00000000D+00
 -0.00000000D+00  0.00000000D+00  0.00000000D+00  0.00000000D+00 -0.00000000D+00
 -0.00000000D+00 -0.00000000D+00  0.00000000D+00 -0.00000000D+00  0.00000000D+00
 -0.00000000D+00  0.00000000D+00 -0.00000000D+00 -0.00000000D+00 -0.00000000D+00
  0.00000000D+00  0.00000000D+00 -0.00000000D+00  0.66839245D-08 -0.66839245D-08
 -0.00000000D+00  0.00000000D+00  0.93586268D-07 -0.00000000D+00 -0.90317191D-07
  0.90317191D-07  0.00000000D+00 -0.00000000D+00 -0.12645937D-05  0.00000000D+00
 -0.00000000D+00  0.00000000D+00 -0.00000000D+00 -0.00000000D+00  0.00000000D+00
 -0.00000000D+00 -0.00000000D+00 -0.00000000D+00 -0.00000000D+00  0.00000000D+00
  0.00000000D+00 -0.00000000D+00 -0.00000000D+00 -0.00000000D+00  0.00000000D+00
  0.00000000D+00  0.00000000D+00 -0.00000000D+00 -0.00000000D+00 -0.00000000D+00
  0.00000000D+00 -0.00000000D+00  0.66839245D-08 -0.66839245D-08 -0.00000000D+00
  0.00000000D+00  0.93586268D-07  0.00000000D+00 -0.90317191D-07  0.90317191D-07
  0.00000000D+00 -0.00000000D+00 -0.12645937D-05
MO   23     MO 0.0        OCC NO =    0.0000000  ORB. ENERGY =    0.042465
 -0.21737848D-03  0.86322921D-03 -0.26104123D-02  0.20868589D-02  0.47128800D-02
 -0.12221994D-01  0.26757033D-02  0.19155595D-02  0.27197683D-02 -0.77039332D-03
  0.20190078D-04  0.00000000D+00  0.00000000D+00 -0.10116824D-03 -0.00000000D+00
 -0.00000000D+00  0.12631061D-03  0.00000000D+00  0.00000000D+00 -0.14257092D-03
 -0.00000000D+00 -0.00000000D+00  0.56493264D-06  0.52503183D-06  0.52503183D-06
  0.00000000D+00  0.00000000D+00 -0.00000000D+00  0.23803167D-06  0.73041463D-06
  0.73041463D-06 -0.00000000D+00 -0.00000000D+00  0.00000000D+00  0.21737848D-03
 -0.86322921D-03  0.26104123D-02 -0.20868589D-02 -0.47128800D-02  0.12221994D-01
 -0.26757033D-02 -0.19155595D-02 -0.27197683D-02  0.77039332D-03  0.20190078D-04
 -0.00000000D+00 -0.00000000D+00 -0.10116824D-03  0.00000000D+00  0.00000000D+00
  0.12631061D-03 -0.00000000D+00 -0.00000000D+00 -0.14257092D-03  0.00000000D+00
  0.00000000D+00 -0.56493264D-06 -0.52503183D-06 -0.52503183D-06  0.00000000D+00
  0.00000000D+00  0.00000000D+00 -0.23803167D-06 -0.73041463D-06 -0.73041463D-06
 -0.00000000D+00 -0.00000000D+00 -0.00000000D+00
MO   24     MO 0.0        OCC NO =    0.0000000  ORB. ENERGY =    0.043316
 -0.00000000D+00  0.00000000D+00  0.00000000D+00 -0.00000000D+00  0.00000000D+00
 -0.00000000D+00  0.00000000D+00  0.00000000D+00  0.00000000D+00 -0.00000000D+00
  0.00000000D+00 -0.46929018D-06 -0.16559640D-06 -0.00000000D+00  0.41554344D-04
  0.14663100D-04  0.00000000D+00 -0.20599287D-03 -0.72687805D-04 -0.00000000D+00
  0.32290251D-03  0.11394120D-03  0.00000000D+00  0.00000000D+00  0.00000000D+00
 -0.35438307D-06 -0.12504961D-06 -0.00000000D+00 -0.00000000D+00  0.00000000D+00
  0.00000000D+00  0.19048375D-05  0.67215168D-06  0.00000000D+00 -0.00000000D+00
  0.00000000D+00  0.00000000D+00 -0.00000000D+00  0.00000000D+00 -0.00000000D+00
  0.00000000D+00  0.00000000D+00  0.00000000D+00 -0.00000000D+00 -0.00000000D+00
 -0.46929018D-06 -0.16559640D-06  0.00000000D+00  0.41554344D-04  0.14663100D-04