 Molden2AIM, Version 3.1.0 (02/25/2015)           Time: Thu Oct 17 19:55:51 2024
GAUSSIAN             68 MOL ORBITALS     68 PRIMITIVES        2 NUCLEI
  Be   1    (CENTRE  1)   0.00000000  0.00000000  0.00000000  CHARGE =  4.0
  Be   2    (CENTRE  2)  51.40000000  0.00000000  0.00000000  CHARGE =  4.0
CENTRE ASSIGNMENTS    1  1  1  1  1  1  1  1  1  1  1  1  1  1  1  1  1  1  1  1
CENTRE ASSIGNMENTS    1  1  1  1  1  1  1  1  1  1  1  1  1  1  2  2  2  2  2  2
CENTRE ASSIGNMENTS    2  2  2  2  2  2  2  2  2  2  2  2  2  2  2  2  2  2  2  2
CENTRE ASSIGNMENTS    2  2  2  2  2  2  2  2
TYPE ASSIGNMENTS      1  1  1  1  1  1  1  1  1  1  2  3  4  2  3  4  2  3  4  2
TYPE ASSIGNMENTS      3  4  5  6  7  8  9 10  5  6  7  8  9 10  1  1  1  1  1  1
TYPE ASSIGNMENTS      1  1  1  1  2  3  4  2  3  4  2  3  4  2  3  4  5  6  7  8
TYPE ASSIGNMENTS      9 10  5  6  7  8  9 10
EXPONENTS  0.1000000D-03 0.3000000D-03 0.9000000D-03 0.2700000D-02 0.8100000D-02
EXPONENTS  0.2430000D-01 0.7290000D-01 0.2187000D+00 0.6561000D+00 0.1968300D+01
EXPONENTS  0.1000000D-03 0.1000000D-03 0.1000000D-03 0.3000000D-03 0.3000000D-03
EXPONENTS  0.3000000D-03 0.9000000D-03 0.9000000D-03 0.9000000D-03 0.2700000D-02
EXPONENTS  0.2700000D-02 0.2700000D-02 0.1000000D-03 0.1000000D-03 0.1000000D-03
EXPONENTS  0.1000000D-03 0.1000000D-03 0.1000000D-03 0.3000000D-03 0.3000000D-03
EXPONENTS  0.3000000D-03 0.3000000D-03 0.3000000D-03 0.3000000D-03 0.1000000D-03
EXPONENTS  0.3000000D-03 0.9000000D-03 0.2700000D-02 0.8100000D-02 0.2430000D-01
EXPONENTS  0.7290000D-01 0.2187000D+00 0.6561000D+00 0.1968300D+01 0.1000000D-03
EXPONENTS  0.1000000D-03 0.1000000D-03 0.3000000D-03 0.3000000D-03 0.3000000D-03
EXPONENTS  0.9000000D-03 0.9000000D-03 0.9000000D-03 0.2700000D-02 0.2700000D-02
EXPONENTS  0.2700000D-02 0.1000000D-03 0.1000000D-03 0.1000000D-03 0.1000000D-03
EXPONENTS  0.1000000D-03 0.1000000D-03 0.3000000D-03 0.3000000D-03 0.3000000D-03
EXPONENTS  0.3000000D-03 0.3000000D-03 0.3000000D-03
MO    1     MO 0.0        OCC NO =    1.0000000  ORB. ENERGY =    0.001094
  0.90446693D-04  0.17487642D-03 -0.89654725D-03 -0.16445769D-02 -0.36444677D-02
 -0.71275893D-02 -0.96513473D-02  0.17967229D-01  0.28662277D-02 -0.11263130D-03
 -0.13174653D-05 -0.00000000D+00 -0.00000000D+00  0.12520174D-05 -0.00000000D+00
  0.00000000D+00 -0.10947795D-04 -0.00000000D+00  0.00000000D+00 -0.17441764D-03
  0.00000000D+00 -0.00000000D+00 -0.83382102D-08 -0.19491133D-08 -0.19491133D-08
 -0.00000000D+00  0.00000000D+00 -0.00000000D+00 -0.52808117D-07 -0.46584853D-07
 -0.46584853D-07 -0.00000000D+00  0.00000000D+00 -0.00000000D+00  0.90446693D-04
  0.17487642D-03 -0.89654725D-03 -0.16445769D-02 -0.36444677D-02 -0.71275893D-02
 -0.96513473D-02  0.17967229D-01  0.28662277D-02 -0.11263130D-03  0.13174653D-05
  0.00000000D+00  0.00000000D+00 -0.12520174D-05  0.00000000D+00 -0.00000000D+00
  0.10947795D-04  0.00000000D+00  0.00000000D+00  0.17441764D-03  0.00000000D+00
 -0.00000000D+00 -0.83382102D-08 -0.19491133D-08 -0.19491133D-08 -0.00000000D+00
 -0.00000000D+00  0.00000000D+00 -0.52808117D-07 -0.46584853D-07 -0.46584853D-07
 -0.00000000D+00  0.00000000D+00  0.00000000D+00
MO    2     MO 0.0        OCC NO =    0.0000000  ORB. ENERGY =    0.001675
  0.15377212D-04 -0.22259706D-02  0.18915146D-04 -0.29557540D-02 -0.37409458D-02
 -0.88274037D-02 -0.10824545D-01  0.20611753D-01  0.34808595D-02 -0.19153242D-03
 -0.34432056D-06  0.00000000D+00  0.00000000D+00 -0.42300376D-04  0.00000000D+00
 -0.00000000D+00  0.25721601D-04  0.00000000D+00  0.00000000D+00 -0.20718193D-03
 -0.00000000D+00 -0.00000000D+00 -0.34113642D-08 -0.30078416D-08 -0.30078416D-08
  0.00000000D+00  0.00000000D+00 -0.00000000D+00 -0.27747315D-06 -0.55400615D-07
 -0.55400615D-07 -0.00000000D+00 -0.00000000D+00  0.00000000D+00 -0.15377212D-04
  0.22259706D-02 -0.18915146D-04  0.29557540D-02  0.37409458D-02  0.88274037D-02
  0.10824545D-01 -0.20611753D-01 -0.34808595D-02  0.19153242D-03 -0.34432056D-06
 -0.00000000D+00 -0.00000000D+00 -0.42300376D-04 -0.00000000D+00  0.00000000D+00
  0.25721601D-04 -0.00000000D+00  0.00000000D+00 -0.20718193D-03  0.00000000D+00
 -0.00000000D+00  0.34113642D-08  0.30078416D-08  0.30078416D-08 -0.00000000D+00
 -0.00000000D+00  0.00000000D+00  0.27747315D-06  0.55400615D-07  0.55400615D-07
  0.00000000D+00  0.00000000D+00 -0.00000000D+00
MO    3     MO 0.0        OCC NO =    0.0000000  ORB. ENERGY =    0.005697
 -0.43601163D-03 -0.26389201D-03  0.34364923D-02 -0.51989365D-02 -0.19117181D-02
 -0.72130262D-02 -0.64860769D-02  0.13371069D-01  0.26766810D-02 -0.25692016D-03
  0.11657536D-04  0.00000000D+00 -0.00000000D+00 -0.16275031D-04  0.00000000D+00
 -0.00000000D+00  0.11238864D-03 -0.00000000D+00  0.00000000D+00 -0.10729399D-03
 -0.00000000D+00 -0.00000000D+00  0.64681778D-07  0.46733426D-08  0.46733426D-08
  0.00000000D+00 -0.00000000D+00 -0.00000000D+00  0.22425666D-07  0.10394799D-06
  0.10394799D-06  0.00000000D+00  0.00000000D+00  0.00000000D+00 -0.43601163D-03
 -0.26389201D-03  0.34364923D-02 -0.51989365D-02 -0.19117181D-02 -0.72130262D-02
 -0.64860769D-02  0.13371069D-01  0.26766810D-02 -0.25692016D-03 -0.11657536D-04
 -0.00000000D+00  0.00000000D+00  0.16275031D-04 -0.00000000D+00 -0.00000000D+00
 -0.11238864D-03  0.00000000D+00  0.00000000D+00  0.10729399D-03  0.00000000D+00
 -0.00000000D+00  0.64681778D-07  0.46733426D-08  0.46733426D-08  0.00000000D+00
 -0.00000000D+00  0.00000000D+00  0.22425666D-07  0.10394799D-06  0.10394799D-06
  0.00000000D+00 -0.00000000D+00 -0.00000000D+00
MO    4     MO 0.0        OCC NO =    0.0000000  ORB. ENERGY =    0.011933
  0.53936410D-05 -0.57595106D-02  0.33479391D-02  0.26601633D-02 -0.11583114D-01
 -0.32850803D-02 -0.10143740D-01  0.16469784D-01  0.17469347D-02  0.19661326D-03
  0.13756936D-05 -0.00000000D+00  0.00000000D+00 -0.97783165D-04 -0.00000000D+00
 -0.00000000D+00  0.59240804D-04  0.00000000D+00  0.00000000D+00  0.39340675D-03
  0.00000000D+00  0.00000000D+00  0.13897112D-07  0.10861785D-07  0.10861785D-07
 -0.00000000D+00  0.00000000D+00 -0.00000000D+00 -0.37427416D-06  0.14003363D-06
  0.14003363D-06 -0.00000000D+00  0.00000000D+00  0.00000000D+00 -0.53936410D-05
  0.57595106D-02 -0.33479391D-02 -0.26601633D-02  0.11583114D-01  0.32850803D-02
  0.10143740D-01 -0.16469784D-01 -0.17469347D-02 -0.19661326D-03  0.13756936D-05
  0.00000000D+00 -0.00000000D+00 -0.97783165D-04  0.00000000D+00 -0.00000000D+00
  0.59240804D-04 -0.00000000D+00  0.00000000D+00  0.39340675D-03  0.00000000D+00
  0.00000000D+00 -0.13897112D-07 -0.10861785D-07 -0.10861785D-07 -0.00000000D+00
  0.00000000D+00  0.00000000D+00  0.37427416D-06 -0.14003363D-06 -0.14003363D-06
 -0.00000000D+00 -0.00000000D+00  0.00000000D+00
MO    5     MO 0.0        OCC NO =    0.0000000  ORB. ENERGY =    0.012900
  0.00000000D+00 -0.00000000D+00  0.00000000D+00 -0.00000000D+00 -0.00000000D+00
  0.00000000D+00 -0.00000000D+00  0.00000000D+00  0.00000000D+00 -0.00000000D+00
 -0.00000000D+00  0.70232948D-06 -0.21021932D-06 -0.00000000D+00 -0.73253442D-05
  0.21926027D-05  0.00000000D+00  0.99065148D-04 -0.29651913D-04 -0.00000000D+00
  0.23969539D-03 -0.71744981D-04 -0.00000000D+00 -0.00000000D+00 -0.00000000D+00
 -0.14640949D-07  0.43822891D-08 -0.00000000D+00 -0.00000000D+00 -0.00000000D+00
 -0.00000000D+00  0.17232502D-06 -0.51579853D-07  0.00000000D+00 -0.00000000D+00
  0.00000000D+00 -0.00000000D+00  0.00000000D+00 -0.00000000D+00  0.00000000D+00
 -0.00000000D+00  0.00000000D+00  0.00000000D+00 -0.00000000D+00 -0.00000000D+00
  0.70232948D-06 -0.21021932D-06 -0.00000000D+00 -0.73253442D-05  0.21926027D-05
  0.00000000D+00  0.99065148D-04 -0.29651913D-04 -0.00000000D+00  0.23969539D-03
 -0.71744981D-04  0.00000000D+00  0.00000000D+00  0.00000000D+00  0.14640949D-07
 -0.43822891D-08  0.00000000D+00  0.00000000D+00  0.00000000D+00  0.00000000D+00
 -0.17232502D-06  0.51579853D-07  0.00000000D+00
MO    6     MO 0.0        OCC NO =    0.0000000  ORB. ENERGY =    0.012900
  0.00000000D+00 -0.00000000D+00  0.00000000D+00 -0.00000000D+00  0.00000000D+00
 -0.00000000D+00  0.00000000D+00 -0.00000000D+00  0.00000000D+00 -0.00000000D+00
  0.00000000D+00  0.21021932D-06  0.70232948D-06 -0.00000000D+00 -0.21926027D-05
 -0.73253442D-05  0.00000000D+00  0.29651913D-04  0.99065148D-04 -0.00000000D+00
  0.71744981D-04  0.23969539D-03  0.00000000D+00 -0.00000000D+00 -0.00000000D+00
 -0.43822891D-08 -0.14640949D-07 -0.00000000D+00 -0.00000000D+00 -0.00000000D+00
 -0.00000000D+00  0.51579853D-07  0.17232502D-06 -0.00000000D+00 -0.00000000D+00
  0.00000000D+00 -0.00000000D+00 -0.00000000D+00  0.00000000D+00 -0.00000000D+00
  0.00000000D+00 -0.00000000D+00 -0.00000000D+00  0.00000000D+00 -0.00000000D+00
  0.21021932D-06  0.70232948D-06 -0.00000000D+00 -0.21926027D-05 -0.73253442D-05
 -0.00000000D+00  0.29651913D-04  0.99065148D-04  0.00000000D+00  0.71744981D-04
  0.23969539D-03  0.00000000D+00  0.00000000D+00  0.00000000D+00  0.43822891D-08
  0.14640949D-07 -0.00000000D+00  0.00000000D+00 -0.00000000D+00  0.00000000D+00
 -0.51579853D-07 -0.17232502D-06  0.00000000D+00
MO    7     MO 0.0        OCC NO =    0.0000000  ORB. ENERGY =    0.013514
 -0.11414602D-03 -0.55647504D-03 -0.10267371D-02  0.11204668D-01 -0.16163384D-01
  0.13263534D-02 -0.10649640D-01  0.14717822D-01  0.41859575D-03  0.54860087D-03
 -0.92075771D-05  0.00000000D+00 -0.00000000D+00  0.86172467D-05  0.00000000D+00
 -0.00000000D+00 -0.13760525D-03 -0.00000000D+00  0.00000000D+00  0.71811057D-03
 -0.00000000D+00  0.00000000D+00 -0.35298843D-07  0.11659487D-07  0.11659487D-07
 -0.00000000D+00  0.00000000D+00  0.00000000D+00  0.23718357D-06  0.25759018D-06
  0.25759018D-06  0.00000000D+00  0.00000000D+00  0.00000000D+00 -0.11414602D-03
 -0.55647504D-03 -0.10267371D-02  0.11204668D-01 -0.16163384D-01  0.13263534D-02
 -0.10649640D-01  0.14717822D-01  0.41859575D-03  0.54860087D-03  0.92075771D-05
 -0.00000000D+00 -0.00000000D+00 -0.86172467D-05 -0.00000000D+00  0.00000000D+00
  0.13760525D-03  0.00000000D+00  0.00000000D+00 -0.71811057D-03 -0.00000000D+00
  0.00000000D+00 -0.35298843D-07  0.11659487D-07  0.11659487D-07  0.00000000D+00
 -0.00000000D+00 -0.00000000D+00  0.23718357D-06  0.25759018D-06  0.25759018D-06
  0.00000000D+00 -0.00000000D+00 -0.00000000D+00
MO    8     MO 0.0        OCC NO =    0.0000000  ORB. ENERGY =    0.015185
  0.00000000D+00 -0.00000000D+00  0.00000000D+00 -0.00000000D+00  0.00000000D+00
  0.00000000D+00  0.00000000D+00 -0.00000000D+00  0.00000000D+00 -0.00000000D+00
 -0.00000000D+00 -0.35174310D-06 -0.21715680D-06 -0.00000000D+00  0.31413781D-05
  0.19394028D-05  0.00000000D+00  0.31915836D-05  0.19703992D-05 -0.00000000D+00
  0.52784408D-03  0.32587682D-03 -0.00000000D+00 -0.00000000D+00 -0.00000000D+00
 -0.33025318D-08 -0.20388936D-08 -0.00000000D+00 -0.00000000D+00 -0.00000000D+00
 -0.00000000D+00  0.73063166D-07  0.45107242D-07 -0.00000000D+00 -0.00000000D+00
  0.00000000D+00 -0.00000000D+00  0.00000000D+00 -0.00000000D+00  0.00000000D+00
 -0.00000000D+00  0.00000000D+00  0.00000000D+00 -0.00000000D+00  0.00000000D+00
  0.35174310D-06  0.21715680D-06 -0.00000000D+00 -0.31413781D-05 -0.19394028D-05
  0.00000000D+00 -0.31915836D-05 -0.19703992D-05 -0.00000000D+00 -0.52784408D-03
 -0.32587682D-03 -0.00000000D+00  0.00000000D+00  0.00000000D+00 -0.33025318D-08
 -0.20388936D-08  0.00000000D+00  0.00000000D+00  0.00000000D+00  0.00000000D+00
  0.73063166D-07  0.45107242D-07  0.00000000D+00
MO    9     MO 0.0        OCC NO =    0.0000000  ORB. ENERGY =    0.015185
  0.00000000D+00 -0.00000000D+00  0.00000000D+00 -0.00000000D+00 -0.00000000D+00
 -0.00000000D+00  0.00000000D+00 -0.00000000D+00  0.00000000D+00 -0.00000000D+00
 -0.00000000D+00 -0.21715680D-06  0.35174310D-06 -0.00000000D+00  0.19394028D-05
 -0.31413781D-05  0.00000000D+00  0.19703992D-05 -0.31915836D-05  0.00000000D+00
  0.32587682D-03 -0.52784408D-03 -0.00000000D+00 -0.00000000D+00 -0.00000000D+00
 -0.20388936D-08  0.33025318D-08  0.00000000D+00 -0.00000000D+00 -0.00000000D+00
 -0.00000000D+00  0.45107242D-07 -0.73063166D-07  0.00000000D+00 -0.00000000D+00
  0.00000000D+00 -0.00000000D+00  0.00000000D+00 -0.00000000D+00 -0.00000000D+00
 -0.00000000D+00  0.00000000D+00  0.00000000D+00  0.00000000D+00 -0.00000000D+00
  0.21715680D-06 -0.35174310D-06 -0.00000000D+00 -0.19394028D-05  0.31413781D-05
  0.00000000D+00 -0.19703992D-05  0.31915836D-05 -0.00000000D+00 -0.32587682D-03
  0.52784408D-03  0.00000000D+00  0.00000000D+00  0.00000000D+00 -0.20388936D-08
  0.33025318D-08  0.00000000D+00  0.00000000D+00  0.00000000D+00  0.00000000D+00
  0.45107242D-07 -0.73063166D-07 -0.00000000D+00
MO   10     MO 0.0        OCC NO =    0.0000000  ORB. ENERGY =    0.018539
  0.10135063D-03 -0.23782515D-01  0.99485371D-02 -0.14126178D-01  0.11148594D-01
 -0.24950694D-02  0.52319428D-02 -0.62922798D-02  0.27901014D-03 -0.38418997D-03
  0.53339505D-06 -0.00000000D+00  0.00000000D+00 -0.43092106D-03  0.00000000D+00
 -0.00000000D+00  0.36261841D-03 -0.00000000D+00 -0.00000000D+00 -0.60326389D-03
  0.00000000D+00  0.00000000D+00  0.32355106D-08  0.35735156D-08  0.35735156D-08
 -0.00000000D+00  0.00000000D+00  0.00000000D+00 -0.23076894D-05 -0.89451944D-07
 -0.89451944D-07 -0.00000000D+00 -0.00000000D+00 -0.00000000D+00 -0.10135063D-03
  0.23782515D-01 -0.99485371D-02  0.14126178D-01 -0.11148594D-01  0.24950694D-02
 -0.52319428D-02  0.62922798D-02 -0.27901014D-03  0.38418997D-03  0.53339505D-06
  0.00000000D+00 -0.00000000D+00 -0.43092106D-03 -0.00000000D+00  0.00000000D+00
  0.36261841D-03 -0.00000000D+00 -0.00000000D+00 -0.60326389D-03  0.00000000D+00
  0.00000000D+00 -0.32355106D-08 -0.35735156D-08 -0.35735156D-08 -0.00000000D+00
  0.00000000D+00 -0.00000000D+00  0.23076894D-05  0.89451944D-07  0.89451944D-07
 -0.00000000D+00  0.00000000D+00  0.00000000D+00
MO   11     MO 0.0        OCC NO =    0.0000000  ORB. ENERGY =    0.019217
 -0.00000000D+00 -0.00000000D+00 -0.00000000D+00  0.00000000D+00 -0.00000000D+00
  0.00000000D+00 -0.00000000D+00  0.00000000D+00  0.00000000D+00 -0.00000000D+00
 -0.00000000D+00  0.66751581D-06 -0.84385482D-06 -0.00000000D+00 -0.74427106D-05
  0.94088647D-05 -0.00000000D+00  0.12583951D-03 -0.15908276D-03  0.00000000D+00
 -0.53509737D-03  0.67645502D-03  0.00000000D+00 -0.00000000D+00 -0.00000000D+00
 -0.12212077D-07  0.15438164D-07  0.00000000D+00 -0.00000000D+00  0.00000000D+00
  0.00000000D+00  0.15007996D-06 -0.18972687D-06 -0.00000000D+00 -0.00000000D+00
  0.00000000D+00  0.00000000D+00 -0.00000000D+00  0.00000000D+00 -0.00000000D+00
  0.00000000D+00 -0.00000000D+00  0.00000000D+00 -0.00000000D+00 -0.00000000D+00
  0.66751581D-06 -0.84385482D-06 -0.00000000D+00 -0.74427106D-05  0.94088647D-05
 -0.00000000D+00  0.12583951D-03 -0.15908276D-03  0.00000000D+00 -0.53509737D-03
  0.67645502D-03  0.00000000D+00  0.00000000D+00  0.00000000D+00  0.12212077D-07
 -0.15438164D-07 -0.00000000D+00  0.00000000D+00  0.00000000D+00  0.00000000D+00
 -0.15007996D-06  0.18972687D-06  0.00000000D+00
MO   12     MO 0.0        OCC NO =    0.0000000  ORB. ENERGY =    0.019217
 -0.00000000D+00  0.00000000D+00  0.00000000D+00 -0.00000000D+00  0.00000000D+00
 -0.00000000D+00  0.00000000D+00 -0.00000000D+00  0.00000000D+00 -0.00000000D+00
  0.00000000D+00  0.84385482D-06  0.66751581D-06  0.00000000D+00 -0.94088647D-05
 -0.74427106D-05  0.00000000D+00  0.15908276D-03  0.12583951D-03 -0.00000000D+00
 -0.67645502D-03 -0.53509737D-03  0.00000000D+00  0.00000000D+00  0.00000000D+00
 -0.15438164D-07 -0.12212077D-07  0.00000000D+00  0.00000000D+00  0.00000000D+00
  0.00000000D+00  0.18972687D-06  0.15007996D-06 -0.00000000D+00  0.00000000D+00
 -0.00000000D+00 -0.00000000D+00  0.00000000D+00 -0.00000000D+00  0.00000000D+00
 -0.00000000D+00  0.00000000D+00  0.00000000D+00 -0.00000000D+00  0.00000000D+00
  0.84385482D-06  0.66751581D-06  0.00000000D+00 -0.94088647D-05 -0.74427106D-05
  0.00000000D+00  0.15908276D-03  0.12583951D-03 -0.00000000D+00 -0.67645502D-03
 -0.53509737D-03 -0.00000000D+00 -0.00000000D+00 -0.00000000D+00  0.15438164D-07
  0.12212077D-07 -0.00000000D+00 -0.00000000D+00 -0.00000000D+00 -0.00000000D+00
 -0.18972687D-06 -0.15007996D-06  0.00000000D+00
MO   13     MO 0.0        OCC NO =    0.0000000  ORB. ENERGY =    0.023104
  0.28930411D-03  0.87332854D-04 -0.54908463D-03  0.82390799D-02 -0.12482730D-01
 -0.96999991D-03 -0.68396799D-02  0.10377848D-01  0.82904476D-03  0.21922243D-03
 -0.69953681D-05 -0.00000000D+00 -0.00000000D+00  0.80750461D-05  0.00000000D+00
  0.00000000D+00 -0.44486486D-04 -0.00000000D+00 -0.00000000D+00 -0.26714818D-03
  0.00000000D+00  0.00000000D+00 -0.39939108D-07 -0.39313326D-08 -0.39313326D-08
 -0.00000000D+00 -0.00000000D+00  0.00000000D+00 -0.34965245D-07 -0.65654819D-07
 -0.65654819D-07  0.00000000D+00  0.00000000D+00 -0.00000000D+00  0.28930411D-03
  0.87332854D-04 -0.54908463D-03  0.82390799D-02 -0.12482730D-01 -0.96999991D-03
 -0.68396799D-02  0.10377848D-01  0.82904476D-03  0.21922243D-03  0.69953681D-05
  0.00000000D+00  0.00000000D+00 -0.80750461D-05  0.00000000D+00 -0.00000000D+00
  0.44486486D-04 -0.00000000D+00  0.00000000D+00  0.26714818D-03 -0.00000000D+00
 -0.00000000D+00 -0.39939108D-07 -0.39313326D-08 -0.39313326D-08 -0.00000000D+00
 -0.00000000D+00 -0.00000000D+00 -0.34965245D-07 -0.65654819D-07 -0.65654819D-07
  0.00000000D+00  0.00000000D+00  0.00000000D+00
MO   14     MO 0.0        OCC NO =    0.0000000  ORB. ENERGY =    0.024940
 -0.23972597D-04  0.63567191D-02 -0.51303711D-02  0.14166092D-01 -0.15805396D-01
 -0.31729723D-03 -0.77341487D-02  0.11335465D-01  0.73118520D-03  0.29687999D-03
 -0.40283795D-06  0.00000000D+00 -0.00000000D+00  0.11630442D-03 -0.00000000D+00
  0.00000000D+00 -0.17284210D-03  0.00000000D+00 -0.00000000D+00 -0.27375562D-03
 -0.00000000D+00  0.00000000D+00 -0.16999304D-08 -0.43898917D-08 -0.43898917D-08
  0.00000000D+00 -0.00000000D+00  0.00000000D+00  0.58766560D-06  0.25440792D-07
  0.25440792D-07 -0.00000000D+00 -0.00000000D+00 -0.00000000D+00  0.23972597D-04
 -0.63567191D-02  0.51303711D-02 -0.14166092D-01  0.15805396D-01  0.31729723D-03
  0.77341487D-02 -0.11335465D-01 -0.73118520D-03 -0.29687999D-03 -0.40283795D-06
 -0.00000000D+00  0.00000000D+00  0.11630442D-03  0.00000000D+00 -0.00000000D+00
 -0.17284210D-03 -0.00000000D+00  0.00000000D+00 -0.27375562D-03  0.00000000D+00
 -0.00000000D+00  0.16999304D-08  0.43898917D-08  0.43898917D-08  0.00000000D+00
 -0.00000000D+00  0.00000000D+00 -0.58766560D-06 -0.25440792D-07 -0.25440792D-07
 -0.00000000D+00  0.00000000D+00 -0.00000000D+00
MO   15     MO 0.0        OCC NO =    0.0000000  ORB. ENERGY =    0.025290
 -0.00000000D+00 -0.00000000D+00  0.00000000D+00 -0.00000000D+00  0.00000000D+00
 -0.00000000D+00  0.00000000D+00 -0.00000000D+00 -0.00000000D+00  0.00000000D+00
  0.00000000D+00  0.36304288D-04  0.54713893D-05 -0.00000000D+00 -0.37724780D-04
 -0.56854708D-05  0.00000000D+00  0.32669025D-03  0.49235217D-04  0.00000000D+00
 -0.71203538D-03 -0.10731027D-03  0.00000000D+00 -0.00000000D+00 -0.00000000D+00
  0.17631832D-06  0.26572790D-07 -0.00000000D+00 -0.00000000D+00  0.00000000D+00
  0.00000000D+00 -0.11856498D-06 -0.17868826D-07  0.00000000D+00 -0.00000000D+00
  0.00000000D+00  0.00000000D+00  0.00000000D+00 -0.00000000D+00 -0.00000000D+00
 -0.00000000D+00  0.00000000D+00 -0.00000000D+00  0.00000000D+00 -0.00000000D+00
 -0.36304288D-04 -0.54713893D-05 -0.00000000D+00  0.37724780D-04  0.56854708D-05
  0.00000000D+00 -0.32669025D-03 -0.49235217D-04  0.00000000D+00  0.71203538D-03
  0.10731027D-03  0.00000000D+00  0.00000000D+00  0.00000000D+00  0.17631832D-06
  0.26572790D-07  0.00000000D+00  0.00000000D+00  0.00000000D+00  0.00000000D+00
 -0.11856498D-06 -0.17868826D-07  0.00000000D+00
MO   16     MO 0.0        OCC NO =    0.0000000  ORB. ENERGY =    0.025290
 -0.00000000D+00  0.00000000D+00  0.00000000D+00 -0.00000000D+00  0.00000000D+00
 -0.00000000D+00  0.00000000D+00 -0.00000000D+00 -0.00000000D+00 -0.00000000D+00
 -0.00000000D+00  0.54713893D-05 -0.36304288D-04  0.00000000D+00 -0.56854708D-05
  0.37724780D-04 -0.00000000D+00  0.49235217D-04 -0.32669025D-03  0.00000000D+00
 -0.10731027D-03  0.71203538D-03 -0.00000000D+00  0.00000000D+00  0.00000000D+00
  0.26572790D-07 -0.17631832D-06 -0.00000000D+00  0.00000000D+00  0.00000000D+00
  0.00000000D+00 -0.17868826D-07  0.11856498D-06  0.00000000D+00  0.00000000D+00
 -0.00000000D+00  0.00000000D+00  0.00000000D+00 -0.00000000D+00 -0.00000000D+00
 -0.00000000D+00  0.00000000D+00  0.00000000D+00 -0.00000000D+00  0.00000000D+00
 -0.54713893D-05  0.36304288D-04  0.00000000D+00  0.56854708D-05 -0.37724780D-04
 -0.00000000D+00 -0.49235217D-04  0.32669025D-03  0.00000000D+00  0.10731027D-03
 -0.71203538D-03 -0.00000000D+00 -0.00000000D+00 -0.00000000D+00  0.26572790D-07
 -0.17631832D-06  0.00000000D+00 -0.00000000D+00  0.00000000D+00  0.00000000D+00
 -0.17868826D-07  0.11856498D-06 -0.00000000D+00
MO   17     MO 0.0        OCC NO =    0.0000000  ORB. ENERGY =    0.031027
 -0.38440746D-02 -0.32123999D-02  0.13955231D-01 -0.11607384D-01  0.60464392D-02
  0.22658853D-02  0.17021515D-02 -0.36711162D-02 -0.81627911D-03  0.89110186D-04
  0.53915359D-04  0.00000000D+00 -0.00000000D+00 -0.92823293D-04 -0.00000000D+00
  0.00000000D+00  0.21635299D-03  0.00000000D+00 -0.00000000D+00 -0.55504259D-03
  0.00000000D+00 -0.00000000D+00  0.37500401D-06  0.84151132D-07  0.84151132D-07
  0.00000000D+00 -0.00000000D+00  0.00000000D+00  0.78461047D-06  0.17095423D-05
  0.17095423D-05 -0.00000000D+00  0.00000000D+00 -0.00000000D+00 -0.38440746D-02
 -0.32123999D-02  0.13955231D-01 -0.11607384D-01  0.60464392D-02  0.22658853D-02
  0.17021515D-02 -0.36711162D-02 -0.81627911D-03  0.89110186D-04 -0.53915359D-04
 -0.00000000D+00  0.00000000D+00  0.92823293D-04  0.00000000D+00 -0.00000000D+00
 -0.21635299D-03 -0.00000000D+00  0.00000000D+00  0.55504259D-03 -0.00000000D+00
 -0.00000000D+00  0.37500401D-06  0.84151132D-07  0.84151132D-07  0.00000000D+00
 -0.00000000D+00 -0.00000000D+00  0.78461047D-06  0.17095423D-05  0.17095423D-05
 -0.00000000D+00  0.00000000D+00  0.00000000D+00
MO   18     MO 0.0        OCC NO =    0.0000000  ORB. ENERGY =    0.031553
 -0.10804219D-02 -0.25827946D-02  0.11858361D-01 -0.17307517D-01  0.13507445D-01
  0.13183941D-02  0.50736219D-02 -0.79905173D-02 -0.79755929D-03 -0.12171523D-03
 -0.40778866D-05  0.00000000D+00 -0.00000000D+00 -0.72268965D-05 -0.00000000D+00
  0.00000000D+00 -0.15074089D-03  0.00000000D+00 -0.00000000D+00  0.41132545D-03
 -0.00000000D+00 -0.00000000D+00  0.21737419D-07  0.40355568D-07  0.40355568D-07
  0.00000000D+00 -0.00000000D+00 -0.00000000D+00  0.69605984D-06  0.91965443D-06
  0.91965443D-06 -0.00000000D+00  0.00000000D+00  0.00000000D+00 -0.10804219D-02
 -0.25827946D-02  0.11858361D-01 -0.17307517D-01  0.13507445D-01  0.13183941D-02
  0.50736219D-02 -0.79905173D-02 -0.79755929D-03 -0.12171523D-03  0.40778866D-05
 -0.00000000D+00  0.00000000D+00  0.72268965D-05  0.00000000D+00 -0.00000000D+00
  0.15074089D-03 -0.00000000D+00  0.00000000D+00 -0.41132545D-03 -0.00000000D+00
 -0.00000000D+00  0.21737419D-07  0.40355568D-07  0.40355568D-07  0.00000000D+00
 -0.00000000D+00  0.00000000D+00  0.69605984D-06  0.91965443D-06  0.91965443D-06
 -0.00000000D+00  0.00000000D+00 -0.00000000D+00
MO   19     MO 0.0        OCC NO =    0.0000000  ORB. ENERGY =    0.032529
  0.12883515D-03 -0.21689321D-01 -0.15450517D-02  0.73928079D-02 -0.73535608D-02
  0.51522161D-03 -0.29780685D-02  0.40002343D-02  0.88975042D-04  0.16101183D-03
 -0.19520011D-05 -0.00000000D+00  0.00000000D+00 -0.42020882D-03  0.00000000D+00
 -0.00000000D+00  0.41747190D-03 -0.00000000D+00  0.00000000D+00 -0.57853181D-03
  0.00000000D+00 -0.00000000D+00 -0.21468803D-07 -0.15380824D-07 -0.15380824D-07
 -0.00000000D+00  0.00000000D+00  0.00000000D+00 -0.26324284D-05 -0.47592945D-06
 -0.47592945D-06 -0.00000000D+00 -0.00000000D+00 -0.00000000D+00 -0.12883515D-03
  0.21689321D-01  0.15450517D-02 -0.73928079D-02  0.73535608D-02 -0.51522161D-03
  0.29780685D-02 -0.40002343D-02 -0.88975042D-04 -0.16101183D-03 -0.19520011D-05
  0.00000000D+00 -0.00000000D+00 -0.42020882D-03  0.00000000D+00  0.00000000D+00
  0.41747190D-03 -0.00000000D+00 -0.00000000D+00 -0.57853181D-03 -0.00000000D+00
 -0.00000000D+00  0.21468803D-07  0.15380824D-07  0.15380824D-07 -0.00000000D+00
  0.00000000D+00 -0.00000000D+00  0.26324284D-05  0.47592945D-06  0.47592945D-06
 -0.00000000D+00 -0.00000000D+00  0.00000000D+00
MO   20     MO 0.0        OCC NO =    0.0000000  ORB. ENERGY =    0.039482
  0.69476230D-03  0.11683572D-01 -0.16337315D-01  0.11957873D-01 -0.45888355D-02
 -0.47285690D-02 -0.77399211D-03  0.34560803D-02  0.13100711D-02 -0.25375795D-03
 -0.48239821D-04  0.00000000D+00 -0.00000000D+00  0.20337574D-03 -0.00000000D+00
 -0.00000000D+00  0.85114878D-04  0.00000000D+00  0.00000000D+00 -0.94908576D-04
 -0.00000000D+00 -0.00000000D+00 -0.62901547D-06 -0.55583608D-06 -0.55583608D-06
  0.00000000D+00 -0.00000000D+00 -0.00000000D+00 -0.27656656D-05 -0.37704627D-05
 -0.37704627D-05 -0.00000000D+00 -0.00000000D+00 -0.00000000D+00 -0.69476230D-03
 -0.11683572D-01  0.16337315D-01 -0.11957873D-01  0.45888355D-02  0.47285690D-02
  0.77399211D-03 -0.34560803D-02 -0.13100711D-02  0.25375795D-03 -0.48239821D-04
 -0.00000000D+00  0.00000000D+00  0.20337574D-03  0.00000000D+00  0.00000000D+00
  0.85114878D-04  0.00000000D+00 -0.00000000D+00 -0.94908576D-04 -0.00000000D+00
  0.00000000D+00  0.62901547D-06  0.55583608D-06  0.55583608D-06  0.00000000D+00
 -0.00000000D+00  0.00000000D+00  0.27656656D-05  0.37704627D-05  0.37704627D-05
 -0.00000000D+00 -0.00000000D+00 -0.00000000D+00
MO   21     MO 0.0        OCC NO =    0.0000000  ORB. ENERGY =    0.042198
 -0.00000000D+00 -0.00000000D+00  0.00000000D+00 -0.00000000D+00  0.00000000D+00
  0.00000000D+00 -0.00000000D+00 -0.00000000D+00 -0.00000000D+00  0.00000000D+00
  0.00000000D+00  0.00000000D+00 -0.00000000D+00 -0.00000000D+00 -0.00000000D+00
  0.00000000D+00  0.00000000D+00  0.00000000D+00 -0.00000000D+00  0.00000000D+00
 -0.00000000D+00  0.00000000D+00  0.00000000D+00  0.58061901D-09 -0.58061901D-09
  0.00000000D+00 -0.00000000D+00 -0.10497929D-06 -0.00000000D+00 -0.74986338D-08
  0.74986338D-08 -0.00000000D+00  0.00000000D+00  0.13557948D-05 -0.00000000D+00
  0.00000000D+00 -0.00000000D+00  0.00000000D+00 -0.00000000D+00 -0.00000000D+00
  0.00000000D+00  0.00000000D+00  0.00000000D+00 -0.00000000D+00 -0.00000000D+00
 -0.00000000D+00  0.00000000D+00 -0.00000000D+00  0.00000000D+00 -0.00000000D+00
  0.00000000D+00 -0.00000000D+00  0.00000000D+00  0.00000000D+00  0.00000000D+00
  0.00000000D+00  0.00000000D+00  0.58061901D-09 -0.58061901D-09  0.00000000D+00
 -0.00000000D+00 -0.10497929D-06  0.00000000D+00 -0.74986338D-08  0.74986338D-08
 -0.00000000D+00  0.00000000D+00  0.13557948D-05
MO   22     MO 0.0        OCC NO =    0.0000000  ORB. ENERGY =    0.042198
  0.00000000D+00  0.00000000D+00 -0.00000000D+00  0.00000000D+00 -0.00000000D+00
 -0.00000000D+00  0.00000000D+00  0.00000000D+00  0.00000000D+00 -0.00000000D+00
  0.00000000D+00  0.00000000D+00 -0.00000000D+00  0.00000000D+00 -0.00000000D+00
  0.00000000D+00  0.00000000D+00  0.00000000D+00 -0.00000000D+00 -0.00000000D+00
 -0.00000000D+00  0.00000000D+00  0.00000000D+00  0.52489644D-07 -0.52489644D-07
  0.00000000D+00 -0.00000000D+00  0.11612395D-08  0.00000000D+00 -0.67789741D-06
  0.67789741D-06 -0.00000000D+00  0.00000000D+00 -0.14997270D-07  0.00000000D+00
 -0.00000000D+00  0.00000000D+00 -0.00000000D+00 -0.00000000D+00  0.00000000D+00
 -0.00000000D+00 -0.00000000D+00 -0.00000000D+00  0.00000000D+00 -0.00000000D+00
 -0.00000000D+00  0.00000000D+00  0.00000000D+00  0.00000000D+00 -0.00000000D+00
  0.00000000D+00 -0.00000000D+00 -0.00000000D+00 -0.00000000D+00  0.00000000D+00
  0.00000000D+00  0.00000000D+00  0.52489644D-07 -0.52489644D-07  0.00000000D+00
 -0.00000000D+00  0.11612395D-08 -0.00000000D+00 -0.67789741D-06  0.67789741D-06
 -0.00000000D+00  0.00000000D+00 -0.14997270D-07
MO   23     MO 0.0        OCC NO =    0.0000000  ORB. ENERGY =    0.042775
 -0.48128044D-03  0.65824377D-01 -0.12122350D-01  0.10105210D-01 -0.14476381D-02
 -0.94370603D-02  0.77414110D-03  0.34799671D-02  0.23435117D-02 -0.58027027D-03
  0.11390501D-04  0.00000000D+00 -0.00000000D+00  0.10123302D-02 -0.00000000D+00
  0.00000000D+00  0.47233317D-04  0.00000000D+00 -0.00000000D+00 -0.94240790D-04
 -0.00000000D+00  0.00000000D+00  0.22779536D-06  0.27918631D-06  0.27918631D-06
  0.00000000D+00 -0.00000000D+00 -0.00000000D+00  0.51947912D-05 -0.60046313D-06
 -0.60046313D-06 -0.00000000D+00 -0.00000000D+00  0.00000000D+00  0.48128043D-03
 -0.65824377D-01  0.12122350D-01 -0.10105210D-01  0.14476381D-02  0.94370603D-02
 -0.77414110D-03 -0.34799671D-02 -0.23435117D-02  0.58027027D-03  0.11390500D-04
 -0.00000000D+00  0.00000000D+00  0.10123302D-02  0.00000000D+00  0.00000000D+00
  0.47233317D-04  0.00000000D+00 -0.00000000D+00 -0.94240790D-04 -0.00000000D+00
  0.00000000D+00 -0.22779536D-06 -0.27918631D-06 -0.27918631D-06  0.00000000D+00
 -0.00000000D+00 -0.00000000D+00 -0.51947912D-05  0.60046313D-06  0.60046313D-06
 -0.00000000D+00  0.00000000D+00  0.00000000D+00
MO   24     MO 0.0        OCC NO =    0.0000000  ORB. ENERGY =    0.042780
 -0.75444331D-02  0.32825369D-02  0.17767873D-02  0.32344766D-03  0.26124708D-03
 -0.15835845D-02  0.26230227D-03  0.39776307D-03  0.38545807D-03 -0.10383161D-03
  0.11579697D-03  0.00000000D+00  0.00000000D+00 -0.43300701D-04 -0.00000000D+00
 -0.00000000D+00  0.43426685D-04  0.00000000D+00 -0.00000000D+00 -0.32597428D-04
 -0.00000000D+00  0.00000000D+00  0.87273562D-06  0.19317239D-06  0.19317239D-06
  0.00000000D+00  0.00000000D+00  0.00000000D+00  0.86612245D-06  0.14327036D-05
  0.14327036D-05 -0.00000000D+00 -0.00000000D+00 -0.00000000D+00 -0.75444331D-02
  0.32825370D-02  0.17767873D-02  0.32344766D-03  0.26124708D-03 -0.15835845D-02
  0.26230227D-03  0.39776307D-03  0.38545807D-03 -0.10383161D-03 -0.11579697D-03
 -0.00000000D+00 -0.00000000D+00  0.43300700D-04 -0.00000000D+00  0.00000000D+00