[Molden Format]
[Atoms] AU
E+       1       4     0.00000000     0.00000000     0.00000000
E+       2       4    51.60000000     0.00000000     0.00000000
[GTO]
  1 0
s  1 1.00
   1.0000000000E-04   1.0000000000E+00
s  1 1.00
   3.0000000000E-04   1.0000000000E+00
s  1 1.00
   9.0000000000E-04   1.0000000000E+00
s  1 1.00
   2.7000000000E-03   1.0000000000E+00
s  1 1.00
   8.1000000000E-03   1.0000000000E+00
s  1 1.00
   2.4300000000E-02   1.0000000000E+00
s  1 1.00
   7.2900000000E-02   1.0000000000E+00
s  1 1.00
   2.1870000000E-01   1.0000000000E+00
s  1 1.00
   6.5610000000E-01   1.0000000000E+00
s  1 1.00
   1.9683000000E+00   1.0000000000E+00
p  1 1.00
   1.0000000000E-04   1.0000000000E+00
p  1 1.00
   3.0000000000E-04   1.0000000000E+00
p  1 1.00
   9.0000000000E-04   1.0000000000E+00
p  1 1.00
   2.7000000000E-03   1.0000000000E+00
d  1 1.00
   1.0000000000E-04   1.0000000000E+00
d  1 1.00
   3.0000000000E-04   1.0000000000E+00
 
  2 0
s  1 1.00
   1.0000000000E-04   1.0000000000E+00
s  1 1.00
   3.0000000000E-04   1.0000000000E+00
s  1 1.00
   9.0000000000E-04   1.0000000000E+00
s  1 1.00
   2.7000000000E-03   1.0000000000E+00
s  1 1.00
   8.1000000000E-03   1.0000000000E+00
s  1 1.00
   2.4300000000E-02   1.0000000000E+00
s  1 1.00
   7.2900000000E-02   1.0000000000E+00
s  1 1.00
   2.1870000000E-01   1.0000000000E+00
s  1 1.00
   6.5610000000E-01   1.0000000000E+00
s  1 1.00
   1.9683000000E+00   1.0000000000E+00
p  1 1.00
   1.0000000000E-04   1.0000000000E+00
p  1 1.00
   3.0000000000E-04   1.0000000000E+00
p  1 1.00
   9.0000000000E-04   1.0000000000E+00
p  1 1.00
   2.7000000000E-03   1.0000000000E+00
d  1 1.00
   1.0000000000E-04   1.0000000000E+00
d  1 1.00
   3.0000000000E-04   1.0000000000E+00
 
 
[MO]
Ene=     1.20598E-03
Spin= Alpha
Occup=   1.0000000000
   1       0.13533255
   2       0.11083342
   3      -0.25323281
   4      -0.19012218
   5      -0.18662865
   6      -0.16067834
   7      -0.09554837
   8       0.07801821
   9       0.00545642
  10      -0.00009369
  11      -0.10123738
  12      -0.00000000
  13      -0.00000000
  14       0.02562772
  15      -0.00000000
  16      -0.00000000
  17      -0.05425330
  18       0.00000000
  19       0.00000000
  20      -0.19958560
  21      -0.00000000
  22      -0.00000000
  23      -0.05527650
  24      -0.01238831
  25      -0.01238831
  26      -0.00000000
  27      -0.00000000
  28       0.00000000
  29      -0.04788653
  30      -0.04316655
  31      -0.04316655
  32      -0.00000000
  33      -0.00000000
  34      -0.00000000
  35       0.13533255
  36       0.11083342
  37      -0.25323281
  38      -0.19012218
  39      -0.18662865
  40      -0.16067834
  41      -0.09554837
  42       0.07801821
  43       0.00545642
  44      -0.00009369
  45       0.10123738
  46       0.00000000
  47       0.00000000
  48      -0.02562772
  49       0.00000000
  50       0.00000000
  51       0.05425330
  52      -0.00000000
  53      -0.00000000
  54       0.19958560
  55       0.00000000
  56       0.00000000
  57      -0.05527650
  58      -0.01238831
  59      -0.01238831
  60      -0.00000000
  61      -0.00000000
  62      -0.00000000
  63      -0.04788653
  64      -0.04316655
  65      -0.04316655
  66      -0.00000000
  67      -0.00000000
  68      -0.00000000
Ene=     1.80651E-03
Spin= Alpha
Occup=   0.0000000000
   1       0.02154898
   2      -1.36099399
   3       0.00457081
   4      -0.35312902
   5      -0.19132638
   6      -0.20088503
   7      -0.10773847
   8       0.09006597
   9       0.00668333
  10      -0.00016266
  11      -0.02451962
  12       0.00000000
  13      -0.00000000
  14      -0.75131161
  15      -0.00000000
  16       0.00000000
  17       0.11705482
  18      -0.00000000
  19      -0.00000000
  20      -0.23910604
  21       0.00000000
  22       0.00000000
  23      -0.02093888
  24      -0.01841754
  25      -0.01841754
  26       0.00000000
  27      -0.00000000
  28       0.00000000
  29      -0.24768381
  30      -0.04970480
  31      -0.04970480
  32       0.00000000
  33       0.00000000
  34      -0.00000000
  35      -0.02154898
  36       1.36099399
  37      -0.00457081
  38       0.35312902
  39       0.19132638
  40       0.20088503
  41       0.10773847
  42      -0.09006597
  43      -0.00668333
  44       0.00016266
  45      -0.02451962
  46      -0.00000000
  47       0.00000000
  48      -0.75131161
  49      -0.00000000
  50      -0.00000000
  51       0.11705482
  52      -0.00000000
  53      -0.00000000
  54      -0.23910604
  55       0.00000000
  56       0.00000000
  57       0.02093888
  58       0.01841754
  59       0.01841754
  60       0.00000000
  61      -0.00000000
  62       0.00000000
  63       0.24768381
  64       0.04970480
  65       0.04970480
  66      -0.00000000
  67      -0.00000000
  68      -0.00000000
Ene=     5.74766E-03
Spin= Alpha
Occup=   0.0000000000
   1      -0.61057684
   2      -0.16193110
   3       0.92656161
   4      -0.62168387
   5      -0.09839760
   6      -0.16612886
   7      -0.06555848
   8       0.05928934
   9       0.00520583
  10      -0.00021923
  11       0.81542543
  12      -0.00000000
  13      -0.00000000
  14      -0.28927700
  15       0.00000000
  16       0.00000000
  17       0.50821624
  18       0.00000000
  19       0.00000000
  20      -0.12749669
  21      -0.00000000
  22      -0.00000000
  23       0.39301097
  24       0.02817375
  25       0.02817375
  26      -0.00000000
  27      -0.00000000
  28      -0.00000000
  29       0.01988707
  30       0.09161068
  31       0.09161068
  32       0.00000000
  33       0.00000000
  34       0.00000000
  35      -0.61057684
  36      -0.16193110
  37       0.92656161
  38      -0.62168387
  39      -0.09839760
  40      -0.16612886
  41      -0.06555848
  42       0.05928934
  43       0.00520583
  44      -0.00021923
  45      -0.81542543
  46       0.00000000
  47       0.00000000
  48       0.28927700
  49      -0.00000000
  50      -0.00000000
  51      -0.50821624
  52      -0.00000000
  53       0.00000000
  54       0.12749669
  55       0.00000000
  56      -0.00000000
  57       0.39301097
  58       0.02817375
  59       0.02817375
  60      -0.00000000
  61      -0.00000000
  62       0.00000000
  63       0.01988707
  64       0.09161068
  65       0.09161068
  66       0.00000000
  67       0.00000000
  68      -0.00000000
Ene=     1.19953E-02
Spin= Alpha
Occup=   0.0000000000
   1      -0.00631496
   2       3.45979601
   3      -0.89669305
   4      -0.31303988
   5       0.60214286
   6       0.07543312
   7       0.10192628
   8      -0.07262844
   9      -0.00338424
  10      -0.00016608
  11      -0.09672318
  12       0.00000000
  13       0.00000000
  14       1.70224649
  15      -0.00000000
  16      -0.00000000
  17      -0.26344174
  18       0.00000000
  19       0.00000000
  20      -0.44701362
  21       0.00000000
  22      -0.00000000
  23      -0.08451577
  24      -0.06607691
  25      -0.06607691
  26       0.00000000
  27       0.00000000
  28      -0.00000000
  29       0.32479987
  30      -0.12457047
  31      -0.12457047
  32      -0.00000000
  33      -0.00000000
  34       0.00000000
  35       0.00631496
  36      -3.45979601
  37       0.89669305
  38       0.31303988
  39      -0.60214286
  40      -0.07543312
  41      -0.10192628
  42       0.07262844
  43       0.00338424
  44       0.00016608
  45      -0.09672318
  46      -0.00000000
  47      -0.00000000
  48       1.70224649
  49       0.00000000
  50       0.00000000
  51      -0.26344174
  52      -0.00000000
  53      -0.00000000
  54      -0.44701362
  55       0.00000000
  56       0.00000000
  57       0.08451577
  58       0.06607691
  59       0.06607691
  60       0.00000000
  61       0.00000000
  62       0.00000000
  63      -0.32479987
  64       0.12457047
  65       0.12457047
  66      -0.00000000
  67      -0.00000000
  68      -0.00000000
Ene=     1.30225E-02
Spin= Alpha
Occup=   0.0000000000
   1       0.00000000
   2       0.00000000
   3      -0.00000000
   4       0.00000000
   5      -0.00000000
   6       0.00000000
   7      -0.00000000
   8       0.00000000
   9       0.00000000
  10      -0.00000000
  11      -0.00000000
  12       0.02286824
  13       0.04664895
  14       0.00000000
  15      -0.06031305
  16      -0.12303263
  17      -0.00000000
  18       0.20696240
  19       0.42218277
  20       0.00000000
  21       0.12348574
  22       0.25189866
  23      -0.00000000
  24       0.00000000
  25       0.00000000
  26      -0.02398983
  27      -0.04893687
  28       0.00000000
  29       0.00000000
  30       0.00000000
  31       0.00000000
  32       0.04114444
  33       0.08393058
  34      -0.00000000
  35       0.00000000
  36      -0.00000000
  37       0.00000000
  38       0.00000000
  39      -0.00000000
  40       0.00000000
  41      -0.00000000
  42       0.00000000
  43      -0.00000000
  44       0.00000000
  45       0.00000000
  46       0.02286824
  47       0.04664895
  48       0.00000000
  49      -0.06031305
  50      -0.12303263
  51      -0.00000000
  52       0.20696240
  53       0.42218277
  54      -0.00000000
  55       0.12348574
  56       0.25189866
  57      -0.00000000
  58      -0.00000000
  59      -0.00000000
  60       0.02398983
  61       0.04893687
  62      -0.00000000
  63      -0.00000000
  64      -0.00000000
  65      -0.00000000
  66      -0.04114444
  67      -0.08393058
  68      -0.00000000
Ene=     1.30225E-02
Spin= Alpha
Occup=   0.0000000000
   1       0.00000000
   2      -0.00000000
   3      -0.00000000
   4       0.00000000
   5      -0.00000000
   6      -0.00000000
   7      -0.00000000
   8       0.00000000
   9      -0.00000000
  10       0.00000000
  11       0.00000000
  12      -0.04664895
  13       0.02286824
  14      -0.00000000
  15       0.12303263
  16      -0.06031305
  17       0.00000000
  18      -0.42218277
  19       0.20696240
  20       0.00000000
  21      -0.25189866
  22       0.12348574
  23       0.00000000
  24      -0.00000000
  25      -0.00000000
  26       0.04893687
  27      -0.02398983
  28      -0.00000000
  29      -0.00000000
  30      -0.00000000
  31      -0.00000000
  32      -0.08393058
  33       0.04114444
  34       0.00000000
  35      -0.00000000
  36       0.00000000
  37      -0.00000000
  38       0.00000000
  39      -0.00000000
  40       0.00000000
  41      -0.00000000
  42       0.00000000
  43      -0.00000000
  44       0.00000000
  45      -0.00000000
  46      -0.04664895
  47       0.02286824
  48      -0.00000000
  49       0.12303263
  50      -0.06031305
  51       0.00000000
  52      -0.42218277
  53       0.20696240
  54      -0.00000000
  55      -0.25189866
  56       0.12348574
  57       0.00000000
  58       0.00000000
  59       0.00000000
  60      -0.04893687
  61       0.02398983
  62       0.00000000
  63       0.00000000
  64       0.00000000
  65       0.00000000
  66       0.08393058
  67      -0.04114444
  68       0.00000000
Ene=     1.36136E-02
Spin= Alpha
Occup=   0.0000000000
   1       0.17613250
   2       0.34596730
   3       0.26468393
   4      -1.32059387
   5       0.84068857
   6      -0.02920712
   7       0.10697609
   8      -0.06498178
   9      -0.00083890
  10      -0.00046208
  11       0.62926307
  12      -0.00000000
  13       0.00000000
  14      -0.14771488
  15       0.00000000
  16       0.00000000
  17       0.61573361
  18      -0.00000000
  19       0.00000000
  20      -0.81779341
  21      -0.00000000
  22       0.00000000
  23       0.20658570
  24      -0.07207152
  25      -0.07207152
  26      -0.00000000
  27      -0.00000000
  28       0.00000000
  29      -0.21144575
  30      -0.23266359
  31      -0.23266359
  32      -0.00000000
  33       0.00000000
  34      -0.00000000
  35       0.17613250
  36       0.34596730
  37       0.26468393
  38      -1.32059387
  39       0.84068857
  40      -0.02920712
  41       0.10697609
  42      -0.06498178
  43      -0.00083890
  44      -0.00046208
  45      -0.62926307
  46       0.00000000
  47      -0.00000000
  48       0.14771488
  49      -0.00000000
  50      -0.00000000
  51      -0.61573361
  52       0.00000000
  53       0.00000000
  54       0.81779341
  55      -0.00000000
  56      -0.00000000
  57       0.20658570
  58      -0.07207152
  59      -0.07207152
  60      -0.00000000
  61       0.00000000
  62      -0.00000000
  63      -0.21144575
  64      -0.23266359
  65      -0.23266359
  66       0.00000000
  67      -0.00000000
  68       0.00000000
Ene=     1.53165E-02
Spin= Alpha
Occup=   0.0000000000
   1       0.00000000
   2       0.00000000
   3       0.00000000
   4       0.00000000
   5      -0.00000000
   6       0.00000000
   7      -0.00000000
   8       0.00000000
   9      -0.00000000
  10      -0.00000000
  11      -0.00000000
  12      -0.01380805
  13      -0.01875115
  14       0.00000000
  15       0.03768924
  16       0.05118147
  17      -0.00000000
  18       0.01146181
  19       0.01556499
  20       0.00000000
  21       0.41832281
  22       0.56807657
  23      -0.00000000
  24       0.00000000
  25       0.00000000
  26      -0.00729045
  27      -0.00990034
  28      -0.00000000
  29       0.00000000
  30       0.00000000
  31       0.00000000
  32       0.02601069
  33       0.03532216
  34       0.00000000
  35       0.00000000
  36      -0.00000000
  37      -0.00000000
  38       0.00000000
  39      -0.00000000
  40       0.00000000
  41       0.00000000
  42      -0.00000000
  43       0.00000000
  44      -0.00000000
  45       0.00000000
  46       0.01380805
  47       0.01875115
  48       0.00000000
  49      -0.03768924
  50      -0.05118147
  51      -0.00000000
  52      -0.01146181
  53      -0.01556499
  54       0.00000000
  55      -0.41832281
  56      -0.56807657
  57      -0.00000000
  58      -0.00000000
  59      -0.00000000
  60      -0.00729045
  61      -0.00990034
  62       0.00000000
  63      -0.00000000
  64      -0.00000000
  65      -0.00000000
  66       0.02601069
  67       0.03532216
  68      -0.00000000
Ene=     1.53165E-02
Spin= Alpha
Occup=   0.0000000000
   1      -0.00000000
   2       0.00000000
   3       0.00000000
   4       0.00000000
   5      -0.00000000
   6       0.00000000
   7      -0.00000000
   8       0.00000000
   9      -0.00000000
  10      -0.00000000
  11       0.00000000
  12       0.01875115
  13      -0.01380805
  14       0.00000000
  15      -0.05118147
  16       0.03768924
  17      -0.00000000
  18      -0.01556499
  19       0.01146181
  20       0.00000000
  21      -0.56807657
  22       0.41832281
  23       0.00000000
  24       0.00000000
  25       0.00000000
  26       0.00990034
  27      -0.00729045
  28       0.00000000
  29       0.00000000
  30       0.00000000
  31       0.00000000
  32      -0.03532216
  33       0.02601069
  34      -0.00000000
  35      -0.00000000
  36      -0.00000000
  37       0.00000000
  38      -0.00000000
  39       0.00000000
  40      -0.00000000
  41       0.00000000
  42       0.00000000
  43      -0.00000000
  44       0.00000000
  45      -0.00000000
  46      -0.01875115
  47       0.01380805
  48       0.00000000
  49       0.05118147
  50      -0.03768924
  51      -0.00000000
  52       0.01556499
  53      -0.01146181
  54      -0.00000000
  55       0.56807657
  56      -0.41832281
  57       0.00000000
  58       0.00000000
  59      -0.00000000
  60       0.00990034
  61      -0.00729045
  62      -0.00000000
  63      -0.00000000
  64       0.00000000
  65       0.00000000
  66      -0.03532216
  67       0.02601069
  68       0.00000000
Ene=     1.86053E-02
Spin= Alpha
Occup=   0.0000000000
   1      -0.13835643
   2      14.37081128
   3      -2.67927367
   4       1.67836320
   5      -0.58263503
   6       0.05742832
   7      -0.05274257
   8       0.02781890
   9      -0.00054379
  10       0.00032723
  11      -0.03834970
  12       0.00000000
  13       0.00000000
  14       7.55691898
  15      -0.00000000
  16      -0.00000000
  17      -1.62980723
  18       0.00000000
  19       0.00000000
  20       0.68680716
  21       0.00000000
  22      -0.00000000
  23      -0.02074015
  24      -0.02304190
  25      -0.02304190
  26       0.00000000
  27       0.00000000
  28      -0.00000000
  29       2.02935174
  30       0.07757107
  31       0.07757107
  32      -0.00000000
  33      -0.00000000
  34       0.00000000
  35       0.13835643
  36     -14.37081128
  37       2.67927367
  38      -1.67836320
  39       0.58263503
  40      -0.05742832
  41       0.05274257
  42      -0.02781890
  43       0.00054379
  44      -0.00032723
  45      -0.03834970
  46      -0.00000000
  47      -0.00000000
  48       7.55691898
  49       0.00000000
  50       0.00000000
  51      -1.62980723
  52      -0.00000000
  53      -0.00000000
  54       0.68680716
  55       0.00000000
  56       0.00000000
  57       0.02074015
  58       0.02304190
  59       0.02304190
  60       0.00000000
  61       0.00000000
  62       0.00000000
  63      -2.02935174
  64      -0.07757107
  65      -0.07757107
  66      -0.00000000
  67      -0.00000000
  68      -0.00000000
Ene=     1.93235E-02
Spin= Alpha
Occup=   0.0000000000
   1      -0.00000000
   2       0.00000000
   3       0.00000000
   4      -0.00000000
   5       0.00000000
   6      -0.00000000
   7       0.00000000
   8      -0.00000000
   9       0.00000000
  10      -0.00000000
  11       0.00000000
  12      -0.05480859
  13       0.05162526
  14       0.00000000
  15       0.15442529
  16      -0.14545613
  17       0.00000000
  18      -0.66244381
  19       0.62396848
  20      -0.00000000
  21       0.71626856
  22      -0.67466705
  23       0.00000000
  24       0.00000000
  25       0.00000000
  26       0.05064707
  27      -0.04770544
  28       0.00000000
  29       0.00000000
  30       0.00000000
  31       0.00000000
  32      -0.09054754
  33       0.08528846
  34      -0.00000000
  35      -0.00000000
  36      -0.00000000
  37      -0.00000000
  38       0.00000000
  39      -0.00000000
  40       0.00000000
  41      -0.00000000
  42       0.00000000
  43      -0.00000000
  44       0.00000000
  45      -0.00000000
  46      -0.05480859
  47       0.05162526
  48       0.00000000
  49       0.15442529
  50      -0.14545613
  51       0.00000000
  52      -0.66244381
  53       0.62396848
  54      -0.00000000
  55       0.71626856
  56      -0.67466705
  57      -0.00000000
  58      -0.00000000
  59      -0.00000000
  60      -0.05064707
  61       0.04770544
  62      -0.00000000
  63      -0.00000000
  64      -0.00000000
  65      -0.00000000
  66       0.09054754
  67      -0.08528846
  68       0.00000000
Ene=     1.93235E-02
Spin= Alpha
Occup=   0.0000000000
   1      -0.00000000
   2       0.00000000
   3       0.00000000
   4      -0.00000000
   5       0.00000000
   6      -0.00000000
   7       0.00000000
   8      -0.00000000
   9      -0.00000000
  10       0.00000000
  11       0.00000000
  12      -0.05162526
  13      -0.05480859
  14       0.00000000
  15       0.14545613
  16       0.15442529
  17       0.00000000
  18      -0.62396848
  19      -0.66244381
  20      -0.00000000
  21       0.67466705
  22       0.71626856
  23       0.00000000
  24       0.00000000
  25       0.00000000
  26       0.04770544
  27       0.05064707
  28       0.00000000
  29       0.00000000
  30       0.00000000
  31       0.00000000
  32      -0.08528846
  33      -0.09054754
  34       0.00000000
  35      -0.00000000
  36      -0.00000000
  37      -0.00000000
  38       0.00000000
  39      -0.00000000
  40       0.00000000
  41      -0.00000000
  42       0.00000000
  43      -0.00000000
  44       0.00000000
  45      -0.00000000
  46      -0.05162526
  47      -0.05480859
  48       0.00000000
  49       0.14545613
  50       0.15442529
  51       0.00000000
  52      -0.62396848
  53      -0.66244381
  54      -0.00000000
  55       0.67466705
  56       0.71626856
  57       0.00000000
  58      -0.00000000
  59      -0.00000000
  60      -0.04770544
  61      -0.05064707
  62      -0.00000000
  63      -0.00000000
  64       0.00000000
  65       0.00000000
  66       0.08528846
  67       0.09054754
  68       0.00000000
Ene=     2.32455E-02
Spin= Alpha
Occup=   0.0000000000
   1      -0.41558206
   2      -0.05481657
   3       0.14698753
   4      -0.96985968
   5       0.64636556
   6       0.02201680
   7       0.06821803
   8      -0.04540759
   9      -0.00159140
  10      -0.00018457
  11       0.49816320
  12      -0.00000000
  13      -0.00000000
  14      -0.14758800
  15       0.00000000
  16       0.00000000
  17       0.20310250
  18      -0.00000000
  19      -0.00000000
  20       0.30297826
  21       0.00000000
  22       0.00000000
  23       0.24768617
  24       0.02459022
  25       0.02459022
  26      -0.00000000
  27      -0.00000000
  28      -0.00000000
  29       0.03130178
  30       0.06030600
  31       0.06030600
  32       0.00000000
  33       0.00000000
  34       0.00000000
  35      -0.41558206
  36      -0.05481657
  37       0.14698753
  38      -0.96985968
  39       0.64636556
  40       0.02201680
  41       0.06821803
  42      -0.04540759
  43      -0.00159140
  44      -0.00018457
  45      -0.49816320
  46       0.00000000
  47       0.00000000
  48       0.14758800
  49      -0.00000000
  50      -0.00000000
  51      -0.20310250
  52       0.00000000
  53      -0.00000000
  54      -0.30297826
  55      -0.00000000
  56       0.00000000
  57       0.24768617
  58       0.02459022
  59       0.02459022
  60      -0.00000000
  61      -0.00000000
  62       0.00000000
  63       0.03130178
  64       0.06030600
  65       0.06030600
  66       0.00000000
  67       0.00000000
  68      -0.00000000
Ene=     2.50718E-02
Spin= Alpha
Occup=   0.0000000000
   1       0.03252226
   2      -3.78914656
   3       1.35824905
   4      -1.66678519
   5       0.81897852
   6       0.00701541
   7       0.07722373
   8      -0.04963492
   9      -0.00140095
  10      -0.00025066
  11       0.02698030
  12      -0.00000000
  13      -0.00000000
  14      -2.01518222
  15       0.00000000
  16       0.00000000
  17       0.77149609
  18      -0.00000000
  19      -0.00000000
  20       0.31075103
  21       0.00000000
  22       0.00000000
  23       0.00923627
  24       0.02593613
  25       0.02593613
  26      -0.00000000
  27      -0.00000000
  28       0.00000000
  29      -0.51232585
  30      -0.02434699
  31      -0.02434699
  32       0.00000000
  33       0.00000000
  34       0.00000000
  35      -0.03252226
  36       3.78914656
  37      -1.35824905
  38       1.66678519
  39      -0.81897852
  40      -0.00701541
  41      -0.07722373
  42       0.04963492
  43       0.00140095
  44       0.00025066
  45       0.02698030
  46       0.00000000
  47       0.00000000
  48      -2.01518222
  49      -0.00000000
  50      -0.00000000
  51       0.77149609
  52       0.00000000
  53       0.00000000
  54       0.31075103
  55      -0.00000000
  56      -0.00000000
  57      -0.00923627
  58      -0.02593613
  59      -0.02593613
  60      -0.00000000
  61      -0.00000000
  62      -0.00000000
  63       0.51232585
  64       0.02434699
  65       0.02434699
  66       0.00000000
  67       0.00000000
  68       0.00000000
Ene=     2.53713E-02
Spin= Alpha
Occup=   0.0000000000
   1      -0.00000000
   2       0.00000000
   3       0.00000000
   4      -0.00000000
   5       0.00000000
   6       0.00000000
   7       0.00000000
   8      -0.00000000
   9      -0.00000000
  10       0.00000000
  11       0.00000000
  12       1.23306512
  13       2.21982708
  14       0.00000000
  15      -0.32584916
  16      -0.58661036
  17       0.00000000
  18       0.72069812
  19       1.29743772
  20       0.00000000
  21      -0.39919128
  22      -0.71864463
  23       0.00000000
  24       0.00000000
  25       0.00000000
  26       0.30029025
  27       0.54059790
  28       0.00000000
  29       0.00000000
  30       0.00000000
  31       0.00000000
  32      -0.02872689
  33      -0.05171561
  34       0.00000000
  35       0.00000000
  36      -0.00000000
  37      -0.00000000
  38       0.00000000
  39      -0.00000000
  40      -0.00000000
  41      -0.00000000
  42       0.00000000
  43      -0.00000000
  44       0.00000000
  45       0.00000000
  46      -1.23306512
  47      -2.21982708
  48       0.00000000
  49       0.32584916
  50       0.58661036
  51       0.00000000
  52      -0.72069812
  53      -1.29743772
  54       0.00000000
  55       0.39919128
  56       0.71864463
  57      -0.00000000
  58      -0.00000000
  59      -0.00000000
  60       0.30029025
  61       0.54059790
  62      -0.00000000
  63      -0.00000000
  64      -0.00000000
  65      -0.00000000
  66      -0.02872689
  67      -0.05171561
  68      -0.00000000
Ene=     2.53713E-02
Spin= Alpha
Occup=   0.0000000000
   1      -0.00000000
   2       0.00000000
   3       0.00000000
   4      -0.00000000
   5       0.00000000
   6       0.00000000
   7       0.00000000
   8      -0.00000000
   9      -0.00000000
  10       0.00000000
  11      -0.00000000
  12       2.21982708
  13      -1.23306512
  14       0.00000000
  15      -0.58661036
  16       0.32584916
  17      -0.00000000
  18       1.29743772
  19      -0.72069812
  20       0.00000000
  21      -0.71864463
  22       0.39919128
  23      -0.00000000
  24       0.00000000
  25       0.00000000
  26       0.54059790
  27      -0.30029025
  28       0.00000000
  29       0.00000000
  30       0.00000000
  31       0.00000000
  32      -0.05171561
  33       0.02872689
  34      -0.00000000
  35       0.00000000
  36      -0.00000000
  37      -0.00000000
  38       0.00000000
  39      -0.00000000
  40      -0.00000000
  41      -0.00000000
  42       0.00000000
  43       0.00000000
  44      -0.00000000
  45       0.00000000
  46      -2.21982708
  47       1.23306512
  48       0.00000000
  49       0.58661036
  50      -0.32584916
  51       0.00000000
  52      -1.29743772
  53       0.72069812
  54       0.00000000
  55       0.71864463
  56      -0.39919128
  57      -0.00000000
  58      -0.00000000
  59      -0.00000000
  60       0.54059790
  61      -0.30029025
  62       0.00000000
  63      -0.00000000
  64      -0.00000000
  65      -0.00000000
  66      -0.05171561
  67       0.02872689
  68      -0.00000000
Ene=     3.10435E-02
Spin= Alpha
Occup=   0.0000000000
   1       5.43358824
   2       2.02641423
   3      -3.86096204
   4       1.43242835
   5      -0.33559771
   6      -0.05154484
   7      -0.01868327
   8       0.01715436
   9       0.00159833
  10      -0.00006960
  11      -3.74694359
  12       0.00000000
  13       0.00000000
  14       1.64551287
  15      -0.00000000
  16      -0.00000000
  17      -0.95337656
  18       0.00000000
  19       0.00000000
  20       0.61864777
  21      -0.00000000
  22      -0.00000000
  23      -2.27710408
  24      -0.51866784
  25      -0.51866784
  26       0.00000000
  27       0.00000000
  28       0.00000000
  29      -0.71907373
  30      -1.54327109
  31      -1.54327109
  32      -0.00000000
  33      -0.00000000
  34      -0.00000000
  35       5.43358824
  36       2.02641423
  37      -3.86096204
  38       1.43242835
  39      -0.33559771
  40      -0.05154484
  41      -0.01868327
  42       0.01715436
  43       0.00159833
  44      -0.00006960
  45       3.74694359
  46      -0.00000000
  47      -0.00000000
  48      -1.64551287
  49       0.00000000
  50       0.00000000
  51       0.95337656
  52      -0.00000000
  53      -0.00000000
  54      -0.61864777
  55       0.00000000
  56       0.00000000
  57      -2.27710408
  58      -0.51866784
  59      -0.51866784
  60       0.00000000
  61       0.00000000
  62      -0.00000000
  63      -0.71907373
  64      -1.54327109
  65      -1.54327109
  66      -0.00000000
  67      -0.00000000
  68       0.00000000
Ene=     3.16364E-02
Spin= Alpha
Occup=   0.0000000000
   1       1.36063838
   2       1.52010604
   3      -3.08163135
   4       2.01123502
   5      -0.69599312
   6      -0.02708227
   7      -0.05063646
   8       0.03469726
   9       0.00146311
  10       0.00010960
  11       0.37963026
  12       0.00000000
  13       0.00000000
  14       0.08269058
  15      -0.00000000
  16      -0.00000000
  17       0.70349363
  18      -0.00000000
  19      -0.00000000
  20      -0.48828824
  21       0.00000000
  22       0.00000000
  23      -0.07207637
  24      -0.22939013
  25      -0.22939013
  26       0.00000000
  27       0.00000000
  28       0.00000000
  29      -0.59276087
  30      -0.76902806
  31      -0.76902806
  32      -0.00000000
  33      -0.00000000
  34      -0.00000000
  35       1.36063838
  36       1.52010604
  37      -3.08163135
  38       2.01123502
  39      -0.69599312
  40      -0.02708227
  41      -0.05063646
  42       0.03469726
  43       0.00146311
  44       0.00010960
  45      -0.37963026
  46      -0.00000000
  47      -0.00000000
  48      -0.08269058
  49       0.00000000
  50       0.00000000
  51      -0.70349363
  52       0.00000000
  53      -0.00000000
  54       0.48828824
  55      -0.00000000
  56      -0.00000000
  57      -0.07207637
  58      -0.22939013
  59      -0.22939013
  60       0.00000000
  61       0.00000000
  62      -0.00000000
  63      -0.59276087
  64      -0.76902806
  65      -0.76902806
  66      -0.00000000
  67      -0.00000000
  68       0.00000000
Ene=     3.26014E-02
Spin= Alpha
Occup=   0.0000000000
   1      -0.17509400
   2      13.02753445
   3       0.42487763
   4      -0.88121263
   5       0.38556939
   6      -0.01236104
   7       0.03011865
   8      -0.01770362
   9      -0.00016273
  10      -0.00013852
  11       0.13120430
  12       0.00000000