 Molden2AIM, Version 3.1.0 (02/25/2015)           Time: Thu Oct 17 19:53:28 2024
GAUSSIAN             68 MOL ORBITALS     68 PRIMITIVES        2 NUCLEI
  Be   1    (CENTRE  1)   0.00000000  0.00000000  0.00000000  CHARGE =  4.0
  Be   2    (CENTRE  2)  20.00000000  0.00000000  0.00000000  CHARGE =  4.0
CENTRE ASSIGNMENTS    1  1  1  1  1  1  1  1  1  1  1  1  1  1  1  1  1  1  1  1
CENTRE ASSIGNMENTS    1  1  1  1  1  1  1  1  1  1  1  1  1  1  2  2  2  2  2  2
CENTRE ASSIGNMENTS    2  2  2  2  2  2  2  2  2  2  2  2  2  2  2  2  2  2  2  2
CENTRE ASSIGNMENTS    2  2  2  2  2  2  2  2
TYPE ASSIGNMENTS      1  1  1  1  1  1  1  1  1  1  2  3  4  2  3  4  2  3  4  2
TYPE ASSIGNMENTS      3  4  5  6  7  8  9 10  5  6  7  8  9 10  1  1  1  1  1  1
TYPE ASSIGNMENTS      1  1  1  1  2  3  4  2  3  4  2  3  4  2  3  4  5  6  7  8
TYPE ASSIGNMENTS      9 10  5  6  7  8  9 10
EXPONENTS  0.1000000D-03 0.3000000D-03 0.9000000D-03 0.2700000D-02 0.8100000D-02
EXPONENTS  0.2430000D-01 0.7290000D-01 0.2187000D+00 0.6561000D+00 0.1968300D+01
EXPONENTS  0.1000000D-03 0.1000000D-03 0.1000000D-03 0.3000000D-03 0.3000000D-03
EXPONENTS  0.3000000D-03 0.9000000D-03 0.9000000D-03 0.9000000D-03 0.2700000D-02
EXPONENTS  0.2700000D-02 0.2700000D-02 0.1000000D-03 0.1000000D-03 0.1000000D-03
EXPONENTS  0.1000000D-03 0.1000000D-03 0.1000000D-03 0.3000000D-03 0.3000000D-03
EXPONENTS  0.3000000D-03 0.3000000D-03 0.3000000D-03 0.3000000D-03 0.1000000D-03
EXPONENTS  0.3000000D-03 0.9000000D-03 0.2700000D-02 0.8100000D-02 0.2430000D-01
EXPONENTS  0.7290000D-01 0.2187000D+00 0.6561000D+00 0.1968300D+01 0.1000000D-03
EXPONENTS  0.1000000D-03 0.1000000D-03 0.3000000D-03 0.3000000D-03 0.3000000D-03
EXPONENTS  0.9000000D-03 0.9000000D-03 0.9000000D-03 0.2700000D-02 0.2700000D-02
EXPONENTS  0.2700000D-02 0.1000000D-03 0.1000000D-03 0.1000000D-03 0.1000000D-03
EXPONENTS  0.1000000D-03 0.1000000D-03 0.3000000D-03 0.3000000D-03 0.3000000D-03
EXPONENTS  0.3000000D-03 0.3000000D-03 0.3000000D-03
MO    1     MO 0.0        OCC NO =    1.0000000  ORB. ENERGY =   -0.004467
 -0.56868181D-04  0.12450275D-03 -0.15403334D-03 -0.17563562D-02 -0.42936266D-02
 -0.85294451D-02 -0.11571193D-01  0.21499141D-01  0.33898582D-02 -0.12188104D-03
  0.61417950D-05 -0.00000000D+00 -0.00000000D+00 -0.99965907D-05  0.00000000D+00
  0.00000000D+00  0.37233938D-05 -0.00000000D+00 -0.00000000D+00 -0.24332360D-04
  0.00000000D+00  0.00000000D+00  0.12291411D-07 -0.15477106D-09 -0.15477106D-09
 -0.00000000D+00 -0.00000000D+00 -0.00000000D+00 -0.64362295D-07 -0.57876808D-08
 -0.57876808D-08  0.00000000D+00  0.00000000D+00 -0.00000000D+00 -0.56868181D-04
  0.12450275D-03 -0.15403334D-03 -0.17563562D-02 -0.42936266D-02 -0.85294451D-02
 -0.11571193D-01  0.21499141D-01  0.33898582D-02 -0.12188104D-03 -0.61417950D-05
  0.00000000D+00  0.00000000D+00  0.99965907D-05 -0.00000000D+00 -0.00000000D+00
 -0.37233938D-05  0.00000000D+00  0.00000000D+00  0.24332360D-04 -0.00000000D+00
 -0.00000000D+00  0.12291411D-07 -0.15477106D-09 -0.15477106D-09 -0.00000000D+00
 -0.00000000D+00  0.00000000D+00 -0.64362295D-07 -0.57876808D-08 -0.57876808D-08
  0.00000000D+00  0.00000000D+00  0.00000000D+00
MO    2     MO 0.0        OCC NO =    0.0000000  ORB. ENERGY =   -0.001092
 -0.76886666D-06  0.73515551D-06  0.27273244D-02  0.24431890D-02  0.52602757D-02
  0.95614486D-02  0.12105321D-01 -0.22766723D-01 -0.37393106D-02  0.17257104D-03
  0.13866198D-06  0.00000000D+00 -0.00000000D+00 -0.43130632D-07 -0.00000000D+00
  0.00000000D+00  0.41865173D-04  0.00000000D+00  0.00000000D+00 -0.62332993D-04
 -0.00000000D+00 -0.00000000D+00  0.21498369D-08  0.37939392D-08  0.37939392D-08
  0.00000000D+00 -0.00000000D+00  0.00000000D+00  0.37680475D-07  0.19130004D-07
  0.19130004D-07 -0.00000000D+00 -0.00000000D+00 -0.00000000D+00  0.76886666D-06
 -0.73515551D-06 -0.27273244D-02 -0.24431890D-02 -0.52602757D-02 -0.95614486D-02
 -0.12105321D-01  0.22766723D-01  0.37393106D-02 -0.17257104D-03  0.13866198D-06
 -0.00000000D+00  0.00000000D+00 -0.43130632D-07  0.00000000D+00 -0.00000000D+00
  0.41865173D-04  0.00000000D+00  0.00000000D+00 -0.62332993D-04 -0.00000000D+00
 -0.00000000D+00 -0.21498369D-08 -0.37939392D-08 -0.37939392D-08  0.00000000D+00
 -0.00000000D+00  0.00000000D+00 -0.37680475D-07 -0.19130004D-07 -0.19130004D-07
 -0.00000000D+00  0.00000000D+00 -0.00000000D+00
MO    3     MO 0.0        OCC NO =    0.0000000  ORB. ENERGY =    0.003308
 -0.64014397D-03  0.24684171D-03  0.42880635D-02 -0.68786031D-02  0.13035781D-02
 -0.50801289D-02 -0.23732391D-02  0.61653083D-02  0.16812256D-02 -0.26253396D-03
  0.54000051D-04 -0.00000000D+00 -0.00000000D+00 -0.74327700D-04  0.00000000D+00
  0.00000000D+00  0.94655988D-04 -0.00000000D+00 -0.00000000D+00 -0.85464901D-04
  0.00000000D+00  0.00000000D+00  0.11196330D-06  0.32319011D-08  0.32319011D-08
 -0.00000000D+00 -0.00000000D+00 -0.00000000D+00 -0.32141943D-06  0.92501704D-07
  0.92501704D-07  0.00000000D+00  0.00000000D+00  0.00000000D+00 -0.64014397D-03
  0.24684171D-03  0.42880635D-02 -0.68786031D-02  0.13035781D-02 -0.50801289D-02
 -0.23732391D-02  0.61653083D-02  0.16812256D-02 -0.26253396D-03 -0.54000051D-04
  0.00000000D+00  0.00000000D+00  0.74327700D-04 -0.00000000D+00 -0.00000000D+00
 -0.94655988D-04  0.00000000D+00  0.00000000D+00  0.85464901D-04 -0.00000000D+00
 -0.00000000D+00  0.11196330D-06  0.32319011D-08  0.32319011D-08 -0.00000000D+00
 -0.00000000D+00  0.00000000D+00 -0.32141943D-06  0.92501704D-07  0.92501704D-07
  0.00000000D+00  0.00000000D+00 -0.00000000D+00
MO    4     MO 0.0        OCC NO =    0.0000000  ORB. ENERGY =    0.003989
 -0.00000000D+00 -0.00000000D+00 -0.00000000D+00  0.00000000D+00  0.00000000D+00
  0.00000000D+00  0.00000000D+00 -0.00000000D+00 -0.00000000D+00  0.00000000D+00
  0.00000000D+00  0.40352215D-06  0.12814900D-06  0.00000000D+00 -0.63375899D-05
 -0.20126671D-05 -0.00000000D+00  0.10693694D-03  0.33960619D-04 -0.00000000D+00
  0.99499575D-04  0.31598691D-04  0.00000000D+00 -0.00000000D+00 -0.00000000D+00
  0.16212667D-07  0.51487554D-08 -0.00000000D+00 -0.00000000D+00 -0.00000000D+00
 -0.00000000D+00 -0.31112270D-07 -0.98805056D-08  0.00000000D+00 -0.00000000D+00
 -0.00000000D+00  0.00000000D+00 -0.00000000D+00 -0.00000000D+00 -0.00000000D+00
 -0.00000000D+00  0.00000000D+00 -0.00000000D+00 -0.00000000D+00 -0.00000000D+00
  0.40352215D-06  0.12814900D-06 -0.00000000D+00 -0.63375899D-05 -0.20126671D-05
 -0.00000000D+00  0.10693694D-03  0.33960619D-04 -0.00000000D+00  0.99499575D-04
  0.31598691D-04  0.00000000D+00  0.00000000D+00  0.00000000D+00 -0.16212667D-07
 -0.51487554D-08  0.00000000D+00  0.00000000D+00 -0.00000000D+00 -0.00000000D+00
  0.31112270D-07  0.98805056D-08 -0.00000000D+00
MO    5     MO 0.0        OCC NO =    0.0000000  ORB. ENERGY =    0.003989
 -0.00000000D+00 -0.00000000D+00  0.00000000D+00  0.00000000D+00 -0.00000000D+00
  0.00000000D+00 -0.00000000D+00 -0.00000000D+00  0.00000000D+00 -0.00000000D+00
  0.00000000D+00 -0.12814900D-06  0.40352215D-06  0.00000000D+00  0.20126671D-05
 -0.63375899D-05  0.00000000D+00 -0.33960619D-04  0.10693694D-03 -0.00000000D+00
 -0.31598691D-04  0.99499575D-04  0.00000000D+00 -0.00000000D+00 -0.00000000D+00
 -0.51487554D-08  0.16212667D-07 -0.00000000D+00  0.00000000D+00 -0.00000000D+00
 -0.00000000D+00  0.98805056D-08 -0.31112270D-07  0.00000000D+00 -0.00000000D+00
 -0.00000000D+00 -0.00000000D+00  0.00000000D+00  0.00000000D+00  0.00000000D+00
  0.00000000D+00 -0.00000000D+00  0.00000000D+00 -0.00000000D+00 -0.00000000D+00
 -0.12814900D-06  0.40352215D-06 -0.00000000D+00  0.20126671D-05 -0.63375899D-05
  0.00000000D+00 -0.33960619D-04  0.10693694D-03 -0.00000000D+00 -0.31598691D-04
  0.99499575D-04  0.00000000D+00  0.00000000D+00  0.00000000D+00  0.51487554D-08
 -0.16212667D-07  0.00000000D+00  0.00000000D+00  0.00000000D+00  0.00000000D+00
 -0.98805056D-08  0.31112270D-07 -0.00000000D+00
MO    6     MO 0.0        OCC NO =    0.0000000  ORB. ENERGY =    0.005541
 -0.10185388D-04 -0.80787012D-05  0.29018320D-01 -0.57841366D-02 -0.54228425D-02
 -0.34364981D-02 -0.71062957D-02  0.12087803D-01  0.15129134D-02  0.68419663D-04
  0.18274628D-05  0.00000000D+00 -0.00000000D+00  0.20997675D-05 -0.00000000D+00
  0.00000000D+00  0.40156726D-03  0.00000000D+00 -0.00000000D+00 -0.25026666D-03
 -0.00000000D+00 -0.00000000D+00  0.32193948D-07  0.46517346D-07  0.46517346D-07
  0.00000000D+00 -0.00000000D+00  0.00000000D+00  0.51947169D-06  0.34972035D-06
  0.34972035D-06 -0.00000000D+00  0.00000000D+00 -0.00000000D+00  0.10185388D-04
  0.80787012D-05 -0.29018320D-01  0.57841366D-02  0.54228425D-02  0.34364981D-02
  0.71062957D-02 -0.12087803D-01 -0.15129134D-02 -0.68419663D-04  0.18274628D-05
 -0.00000000D+00  0.00000000D+00  0.20997675D-05  0.00000000D+00 -0.00000000D+00
  0.40156726D-03 -0.00000000D+00  0.00000000D+00 -0.25026666D-03  0.00000000D+00
 -0.00000000D+00 -0.32193948D-07 -0.46517346D-07 -0.46517346D-07  0.00000000D+00
 -0.00000000D+00  0.00000000D+00 -0.51947169D-06 -0.34972035D-06 -0.34972035D-06
 -0.00000000D+00  0.00000000D+00 -0.00000000D+00
MO    7     MO 0.0        OCC NO =    0.0000000  ORB. ENERGY =    0.006725
 -0.13809545D-02  0.20094550D-02 -0.14464711D-04 -0.69426172D-02  0.50956333D-02
 -0.19826657D-02  0.26497519D-02 -0.28246277D-02  0.36184916D-03 -0.24900873D-03
  0.15172243D-03 -0.00000000D+00 -0.00000000D+00 -0.17009528D-03  0.00000000D+00
  0.00000000D+00  0.17339732D-03 -0.00000000D+00 -0.00000000D+00  0.45645296D-03
 -0.00000000D+00 -0.00000000D+00  0.30142237D-06 -0.46383997D-08 -0.46383997D-08
 -0.00000000D+00 -0.00000000D+00  0.00000000D+00 -0.10807660D-05 -0.13066525D-06
 -0.13066525D-06  0.00000000D+00  0.00000000D+00  0.00000000D+00 -0.13809545D-02
  0.20094550D-02 -0.14464711D-04 -0.69426172D-02  0.50956333D-02 -0.19826657D-02
  0.26497519D-02 -0.28246277D-02  0.36184916D-03 -0.24900873D-03 -0.15172243D-03
  0.00000000D+00  0.00000000D+00  0.17009528D-03 -0.00000000D+00 -0.00000000D+00
 -0.17339732D-03  0.00000000D+00  0.00000000D+00 -0.45645296D-03  0.00000000D+00
  0.00000000D+00  0.30142237D-06 -0.46383997D-08 -0.46383997D-08 -0.00000000D+00
 -0.00000000D+00 -0.00000000D+00 -0.10807660D-05 -0.13066525D-06 -0.13066525D-06
  0.00000000D+00  0.00000000D+00 -0.00000000D+00
MO    8     MO 0.0        OCC NO =    0.0000000  ORB. ENERGY =    0.007078
 -0.00000000D+00 -0.00000000D+00 -0.00000000D+00  0.00000000D+00 -0.00000000D+00
  0.00000000D+00 -0.00000000D+00  0.00000000D+00 -0.00000000D+00  0.00000000D+00
  0.00000000D+00  0.19531929D-05  0.17769780D-05  0.00000000D+00  0.13917837D-03
  0.12662186D-03 -0.00000000D+00 -0.17263155D-03 -0.15705693D-03 -0.00000000D+00
 -0.40821760D-03 -0.37138868D-03  0.00000000D+00 -0.00000000D+00 -0.00000000D+00
  0.80472487D-08  0.73212356D-08  0.00000000D+00  0.00000000D+00 -0.00000000D+00
 -0.00000000D+00  0.74818028D-06  0.68068032D-06 -0.00000000D+00 -0.00000000D+00
  0.00000000D+00 -0.00000000D+00  0.00000000D+00 -0.00000000D+00  0.00000000D+00
 -0.00000000D+00  0.00000000D+00 -0.00000000D+00  0.00000000D+00 -0.00000000D+00
 -0.19531929D-05 -0.17769780D-05 -0.00000000D+00 -0.13917837D-03 -0.12662186D-03
  0.00000000D+00  0.17263155D-03  0.15705693D-03  0.00000000D+00  0.40821760D-03
  0.37138868D-03  0.00000000D+00 -0.00000000D+00 -0.00000000D+00  0.80472487D-08
  0.73212356D-08 -0.00000000D+00  0.00000000D+00 -0.00000000D+00 -0.00000000D+00
  0.74818028D-06  0.68068032D-06  0.00000000D+00
MO    9     MO 0.0        OCC NO =    0.0000000  ORB. ENERGY =    0.007078
 -0.00000000D+00  0.00000000D+00  0.00000000D+00 -0.00000000D+00  0.00000000D+00
 -0.00000000D+00  0.00000000D+00 -0.00000000D+00 -0.00000000D+00 -0.00000000D+00
  0.00000000D+00 -0.17769780D-05  0.19531929D-05  0.00000000D+00 -0.12662186D-03
  0.13917837D-03  0.00000000D+00  0.15705693D-03 -0.17263155D-03  0.00000000D+00
  0.37138868D-03 -0.40821760D-03  0.00000000D+00  0.00000000D+00  0.00000000D+00
 -0.73212356D-08  0.80472487D-08 -0.00000000D+00  0.00000000D+00 -0.00000000D+00
 -0.00000000D+00 -0.68068032D-06  0.74818028D-06 -0.00000000D+00  0.00000000D+00
 -0.00000000D+00 -0.00000000D+00 -0.00000000D+00 -0.00000000D+00  0.00000000D+00
 -0.00000000D+00  0.00000000D+00 -0.00000000D+00  0.00000000D+00 -0.00000000D+00
  0.17769780D-05 -0.19531929D-05  0.00000000D+00  0.12662186D-03 -0.13917837D-03
  0.00000000D+00 -0.15705693D-03  0.17263155D-03 -0.00000000D+00 -0.37138868D-03
  0.40821760D-03  0.00000000D+00 -0.00000000D+00 -0.00000000D+00 -0.73212356D-08
  0.80472487D-08  0.00000000D+00 -0.00000000D+00  0.00000000D+00  0.00000000D+00
 -0.68068032D-06  0.74818028D-06  0.00000000D+00
MO   10     MO 0.0        OCC NO =    0.0000000  ORB. ENERGY =    0.010203
  0.00000000D+00  0.00000000D+00 -0.00000000D+00 -0.00000000D+00 -0.00000000D+00
 -0.00000000D+00 -0.00000000D+00  0.00000000D+00 -0.00000000D+00  0.00000000D+00
 -0.00000000D+00  0.54354312D-06  0.73939772D-07 -0.00000000D+00 -0.85080880D-05
 -0.11573797D-05 -0.00000000D+00  0.16894996D-03  0.22982753D-04 -0.00000000D+00
 -0.73978906D-03 -0.10063565D-03 -0.00000000D+00 -0.00000000D+00 -0.00000000D+00
  0.17403598D-07  0.23674622D-08 -0.00000000D+00 -0.00000000D+00  0.00000000D+00
  0.00000000D+00 -0.11106747D-07 -0.15108745D-08  0.00000000D+00  0.00000000D+00
  0.00000000D+00  0.00000000D+00  0.00000000D+00  0.00000000D+00  0.00000000D+00
  0.00000000D+00 -0.00000000D+00 -0.00000000D+00 -0.00000000D+00  0.00000000D+00
  0.54354312D-06  0.73939772D-07  0.00000000D+00 -0.85080880D-05 -0.11573797D-05
 -0.00000000D+00  0.16894996D-03  0.22982753D-04 -0.00000000D+00 -0.73978906D-03
 -0.10063565D-03 -0.00000000D+00  0.00000000D+00  0.00000000D+00 -0.17403598D-07
 -0.23674622D-08  0.00000000D+00 -0.00000000D+00 -0.00000000D+00 -0.00000000D+00
  0.11106747D-07  0.15108745D-08 -0.00000000D+00
MO   11     MO 0.0        OCC NO =    0.0000000  ORB. ENERGY =    0.010203
  0.00000000D+00 -0.00000000D+00  0.00000000D+00  0.00000000D+00 -0.00000000D+00
  0.00000000D+00  0.00000000D+00 -0.00000000D+00  0.00000000D+00  0.00000000D+00
 -0.00000000D+00  0.73939772D-07 -0.54354312D-06  0.00000000D+00 -0.11573797D-05
  0.85080880D-05  0.00000000D+00  0.22982753D-04 -0.16894996D-03  0.00000000D+00
 -0.10063565D-03  0.73978906D-03 -0.00000000D+00  0.00000000D+00  0.00000000D+00
  0.23674622D-08 -0.17403598D-07  0.00000000D+00  0.00000000D+00 -0.00000000D+00
 -0.00000000D+00 -0.15108745D-08  0.11106747D-07 -0.00000000D+00  0.00000000D+00
 -0.00000000D+00 -0.00000000D+00 -0.00000000D+00 -0.00000000D+00 -0.00000000D+00
 -0.00000000D+00  0.00000000D+00  0.00000000D+00 -0.00000000D+00  0.00000000D+00
  0.73939772D-07 -0.54354312D-06 -0.00000000D+00 -0.11573797D-05  0.85080880D-05
  0.00000000D+00  0.22982753D-04 -0.16894996D-03  0.00000000D+00 -0.10063565D-03
  0.73978906D-03 -0.00000000D+00  0.00000000D+00  0.00000000D+00 -0.23674622D-08
  0.17403598D-07 -0.00000000D+00  0.00000000D+00  0.00000000D+00  0.00000000D+00
  0.15108745D-08 -0.11106747D-07  0.00000000D+00
MO   12     MO 0.0        OCC NO =    0.0000000  ORB. ENERGY =    0.010466
  0.33561728D-05 -0.74722950D-04 -0.63679269D-01 -0.16752555D-01 -0.27998403D-03
 -0.18591314D-02 -0.17387938D-02  0.35025022D-02  0.67954591D-03 -0.57322342D-04
 -0.61690745D-06 -0.00000000D+00  0.00000000D+00  0.82063751D-05  0.00000000D+00
 -0.00000000D+00 -0.10963954D-02 -0.00000000D+00  0.00000000D+00 -0.21246231D-02
  0.00000000D+00 -0.00000000D+00  0.70613445D-08 -0.31353083D-07 -0.31353083D-07
 -0.00000000D+00  0.00000000D+00 -0.00000000D+00 -0.13428702D-06  0.26322715D-06
  0.26322715D-06  0.00000000D+00 -0.00000000D+00  0.00000000D+00 -0.33561728D-05
  0.74722950D-04  0.63679269D-01  0.16752555D-01  0.27998403D-03  0.18591314D-02
  0.17387938D-02 -0.35025022D-02 -0.67954591D-03  0.57322342D-04 -0.61690745D-06
  0.00000000D+00 -0.00000000D+00  0.82063751D-05 -0.00000000D+00  0.00000000D+00
 -0.10963954D-02  0.00000000D+00 -0.00000000D+00 -0.21246231D-02  0.00000000D+00
  0.00000000D+00 -0.70613445D-08  0.31353083D-07  0.31353083D-07 -0.00000000D+00
  0.00000000D+00  0.00000000D+00  0.13428702D-06 -0.26322715D-06 -0.26322715D-06
  0.00000000D+00 -0.00000000D+00  0.00000000D+00
MO   13     MO 0.0        OCC NO =    0.0000000  ORB. ENERGY =    0.013202
  0.14415368D-03 -0.22953774D-03 -0.10059979D-02  0.13811578D-01 -0.25498809D-01
  0.40398890D-02 -0.14046262D-01  0.18203665D-01 -0.41237659D-04  0.86358950D-03
 -0.43330366D-04  0.00000000D+00  0.00000000D+00 -0.22750362D-04 -0.00000000D+00
 -0.00000000D+00 -0.82557486D-04  0.00000000D+00  0.00000000D+00  0.25803835D-03
 -0.00000000D+00 -0.00000000D+00 -0.76788682D-07  0.98700591D-08  0.98700591D-08
  0.00000000D+00  0.00000000D+00  0.00000000D+00  0.36688096D-07  0.20951625D-06
  0.20951625D-06 -0.00000000D+00 -0.00000000D+00 -0.00000000D+00  0.14415368D-03
 -0.22953774D-03 -0.10059979D-02  0.13811578D-01 -0.25498809D-01  0.40398890D-02
 -0.14046262D-01  0.18203665D-01 -0.41237659D-04  0.86358950D-03  0.43330366D-04
 -0.00000000D+00 -0.00000000D+00  0.22750362D-04  0.00000000D+00  0.00000000D+00
  0.82557486D-04 -0.00000000D+00 -0.00000000D+00 -0.25803835D-03  0.00000000D+00
  0.00000000D+00 -0.76788682D-07  0.98700591D-08  0.98700591D-08  0.00000000D+00
  0.00000000D+00  0.00000000D+00  0.36688096D-07  0.20951625D-06  0.20951625D-06
 -0.00000000D+00 -0.00000000D+00  0.00000000D+00
MO   14     MO 0.0        OCC NO =    0.0000000  ORB. ENERGY =    0.015363
 -0.11749270D-04 -0.99009579D-04 -0.78987318D-02 -0.31224434D-01  0.24283890D-01
 -0.46280461D-02  0.12125149D-01 -0.15159089D-01  0.27982066D-03 -0.79888868D-03
  0.20818985D-05 -0.00000000D+00  0.00000000D+00  0.14767010D-04  0.00000000D+00
 -0.00000000D+00 -0.39154972D-03 -0.00000000D+00  0.00000000D+00 -0.61306524D-03
  0.00000000D+00 -0.00000000D+00  0.53939367D-07  0.36496978D-07  0.36496978D-07
 -0.00000000D+00  0.00000000D+00 -0.00000000D+00  0.70804860D-06  0.84234368D-06
  0.84234368D-06  0.00000000D+00 -0.00000000D+00  0.00000000D+00  0.11749270D-04
  0.99009579D-04  0.78987318D-02  0.31224434D-01 -0.24283890D-01  0.46280461D-02
 -0.12125149D-01  0.15159089D-01 -0.27982066D-03  0.79888868D-03  0.20818985D-05
  0.00000000D+00 -0.00000000D+00  0.14767010D-04 -0.00000000D+00  0.00000000D+00
 -0.39154972D-03  0.00000000D+00 -0.00000000D+00 -0.61306524D-03 -0.00000000D+00
  0.00000000D+00 -0.53939367D-07 -0.36496978D-07 -0.36496978D-07  0.00000000D+00
  0.00000000D+00  0.00000000D+00 -0.70804860D-06 -0.84234368D-06 -0.84234368D-06
  0.00000000D+00 -0.00000000D+00  0.00000000D+00
MO   15     MO 0.0        OCC NO =    0.0000000  ORB. ENERGY =    0.015446
  0.32555372D-02 -0.54609808D-02  0.67223122D-02 -0.68931013D-02  0.28835657D-02
 -0.73660525D-03  0.10424628D-02 -0.11949280D-02  0.82028494D-04 -0.82477849D-04
 -0.37208349D-03  0.00000000D+00  0.00000000D+00  0.39084602D-03 -0.00000000D+00
 -0.00000000D+00 -0.44247172D-03  0.00000000D+00  0.00000000D+00  0.80291480D-03
 -0.00000000D+00 -0.00000000D+00 -0.73519168D-06  0.15602932D-07  0.15602932D-07
  0.00000000D+00  0.00000000D+00 -0.00000000D+00  0.26417358D-05  0.46801144D-06
  0.46801144D-06 -0.00000000D+00 -0.00000000D+00 -0.00000000D+00  0.32555372D-02
 -0.54609808D-02  0.67223122D-02 -0.68931013D-02  0.28835657D-02 -0.73660525D-03
  0.10424628D-02 -0.11949280D-02  0.82028494D-04 -0.82477849D-04  0.37208349D-03
 -0.00000000D+00 -0.00000000D+00 -0.39084602D-03  0.00000000D+00  0.00000000D+00
  0.44247172D-03 -0.00000000D+00 -0.00000000D+00 -0.80291480D-03  0.00000000D+00
  0.00000000D+00 -0.73519168D-06  0.15602932D-07  0.15602932D-07  0.00000000D+00
  0.00000000D+00  0.00000000D+00  0.26417358D-05  0.46801144D-06  0.46801144D-06
 -0.00000000D+00 -0.00000000D+00  0.00000000D+00
MO   16     MO 0.0        OCC NO =    0.0000000  ORB. ENERGY =    0.015463
  0.00000000D+00 -0.00000000D+00  0.00000000D+00 -0.00000000D+00  0.00000000D+00
 -0.00000000D+00  0.00000000D+00 -0.00000000D+00  0.00000000D+00 -0.00000000D+00
 -0.00000000D+00  0.16232437D-06  0.44910887D-05  0.00000000D+00  0.11533758D-04
  0.31910888D-03 -0.00000000D+00 -0.19674581D-04 -0.54434412D-03  0.00000000D+00
  0.41991080D-04  0.11617831D-02 -0.00000000D+00  0.00000000D+00  0.00000000D+00
  0.72425985D-09  0.20038344D-07  0.00000000D+00  0.00000000D+00  0.00000000D+00
  0.00000000D+00  0.60662879D-07  0.16783830D-05 -0.00000000D+00  0.00000000D+00
 -0.00000000D+00  0.00000000D+00 -0.00000000D+00  0.00000000D+00 -0.00000000D+00
  0.00000000D+00 -0.00000000D+00  0.00000000D+00 -0.00000000D+00  0.00000000D+00
 -0.16232437D-06 -0.44910887D-05 -0.00000000D+00 -0.11533758D-04 -0.31910888D-03
  0.00000000D+00  0.19674581D-04  0.54434412D-03 -0.00000000D+00 -0.41991080D-04
 -0.11617831D-02 -0.00000000D+00  0.00000000D+00  0.00000000D+00  0.72425985D-09
  0.20038344D-07 -0.00000000D+00  0.00000000D+00  0.00000000D+00  0.00000000D+00
  0.60662879D-07  0.16783830D-05  0.00000000D+00
MO   17     MO 0.0        OCC NO =    0.0000000  ORB. ENERGY =    0.015463
 -0.00000000D+00  0.00000000D+00 -0.00000000D+00  0.00000000D+00 -0.00000000D+00
  0.00000000D+00 -0.00000000D+00  0.00000000D+00 -0.00000000D+00  0.00000000D+00
  0.00000000D+00 -0.44910887D-05  0.16232437D-06 -0.00000000D+00 -0.31910888D-03
  0.11533758D-04  0.00000000D+00  0.54434412D-03 -0.19674581D-04 -0.00000000D+00
 -0.11617831D-02  0.41991080D-04  0.00000000D+00 -0.00000000D+00 -0.00000000D+00
 -0.20038344D-07  0.72425985D-09 -0.00000000D+00 -0.00000000D+00 -0.00000000D+00
 -0.00000000D+00 -0.16783830D-05  0.60662879D-07  0.00000000D+00 -0.00000000D+00
  0.00000000D+00 -0.00000000D+00  0.00000000D+00 -0.00000000D+00  0.00000000D+00
 -0.00000000D+00  0.00000000D+00 -0.00000000D+00  0.00000000D+00 -0.00000000D+00
  0.44910887D-05 -0.16232437D-06  0.00000000D+00  0.31910888D-03 -0.11533758D-04
 -0.00000000D+00 -0.54434412D-03  0.19674581D-04  0.00000000D+00  0.11617831D-02
 -0.41991080D-04  0.00000000D+00 -0.00000000D+00 -0.00000000D+00 -0.20038344D-07
  0.72425985D-09  0.00000000D+00 -0.00000000D+00 -0.00000000D+00 -0.00000000D+00
 -0.16783830D-05  0.60662879D-07 -0.00000000D+00
MO   18     MO 0.0        OCC NO =    0.0000000  ORB. ENERGY =    0.022226
 -0.35607008D-04 -0.34704618D-03 -0.12288582D+00  0.50201520D-01 -0.18794349D-01
  0.52167138D-02 -0.65928590D-02  0.68962216D-02 -0.83519638D-03  0.59284803D-03
  0.63438123D-05 -0.00000000D+00  0.00000000D+00  0.43100404D-04  0.00000000D+00
 -0.00000000D+00 -0.26618201D-02 -0.00000000D+00  0.00000000D+00  0.28061128D-02
 -0.00000000D+00  0.00000000D+00  0.18431549D-06  0.10611445D-06  0.10611445D-06
 -0.00000000D+00  0.00000000D+00 -0.00000000D+00  0.19713562D-05  0.26640344D-05
  0.26640344D-05  0.00000000D+00 -0.00000000D+00  0.00000000D+00  0.35607015D-04
  0.34704618D-03  0.12288582D+00 -0.50201520D-01  0.18794349D-01 -0.52167138D-02
  0.65928590D-02 -0.68962216D-02  0.83519638D-03 -0.59284803D-03  0.63438123D-05
  0.00000000D+00 -0.00000000D+00  0.43100404D-04 -0.00000000D+00  0.00000000D+00
 -0.26618201D-02  0.00000000D+00 -0.00000000D+00  0.28061128D-02  0.00000000D+00
 -0.00000000D+00 -0.18431549D-06 -0.10611445D-06 -0.10611445D-06 -0.00000000D+00
  0.00000000D+00  0.00000000D+00 -0.19713562D-05 -0.26640344D-05 -0.26640344D-05
  0.00000000D+00 -0.00000000D+00 -0.00000000D+00
MO   19     MO 0.0        OCC NO =    0.0000000  ORB. ENERGY =    0.028122
 -0.31345810D-02 -0.13409760D-02  0.17083752D-01 -0.19312710D-01  0.12455889D-01
  0.49239519D-02  0.35122070D-02 -0.76911756D-02 -0.17721958D-02  0.20563798D-03
  0.86960347D-04 -0.00000000D+00 -0.00000000D+00 -0.42268187D-03  0.00000000D+00
  0.00000000D+00 -0.14670891D-04 -0.00000000D+00 -0.00000000D+00  0.92286277D-04
  0.00000000D+00  0.00000000D+00  0.25649702D-06  0.78077608D-07  0.78077608D-07
 -0.00000000D+00 -0.00000000D+00  0.00000000D+00 -0.81921525D-06  0.17272743D-05
  0.17272743D-05  0.00000000D+00  0.00000000D+00  0.00000000D+00 -0.31345810D-02
 -0.13409760D-02  0.17083752D-01 -0.19312710D-01  0.12455889D-01  0.49239519D-02
  0.35122070D-02 -0.76911756D-02 -0.17721958D-02  0.20563798D-03 -0.86960347D-04
  0.00000000D+00  0.00000000D+00  0.42268187D-03 -0.00000000D+00 -0.00000000D+00
  0.14670891D-04  0.00000000D+00  0.00000000D+00 -0.92286277D-04 -0.00000000D+00
 -0.00000000D+00  0.25649702D-06  0.78077608D-07  0.78077608D-07 -0.00000000D+00
 -0.00000000D+00 -0.00000000D+00 -0.81921525D-06  0.17272743D-05  0.17272743D-05
  0.00000000D+00  0.00000000D+00 -0.00000000D+00
MO   20     MO 0.0        OCC NO =    0.0000000  ORB. ENERGY =    0.036388
  0.17758936D-03  0.35535197D-03  0.70718540D-03  0.24993556D-02  0.18953788D-02
 -0.12238102D-01  0.24725240D-02  0.25645989D-02  0.30311056D-02 -0.84450969D-03
 -0.31274326D-04 -0.00000000D+00 -0.00000000D+00 -0.30994037D-04 -0.00000000D+00
 -0.00000000D+00  0.61646074D-03  0.00000000D+00  0.00000000D+00 -0.74501542D-03
 -0.00000000D+00 -0.00000000D+00 -0.81521285D-06 -0.82713878D-06 -0.82713878D-06
 -0.00000000D+00 -0.00000000D+00  0.00000000D+00 -0.71650701D-05 -0.68945608D-05
 -0.68945608D-05 -0.00000000D+00 -0.00000000D+00 -0.00000000D+00 -0.17758936D-03
 -0.35535197D-03 -0.70718540D-03 -0.24993556D-02 -0.18953788D-02  0.12238102D-01
 -0.24725240D-02 -0.25645989D-02 -0.30311056D-02  0.84450969D-03 -0.31274326D-04
  0.00000000D+00  0.00000000D+00 -0.30994037D-04  0.00000000D+00  0.00000000D+00
  0.61646074D-03 -0.00000000D+00 -0.00000000D+00 -0.74501542D-03  0.00000000D+00
  0.00000000D+00  0.81521285D-06  0.82713878D-06  0.82713878D-06 -0.00000000D+00
 -0.00000000D+00 -0.00000000D+00  0.71650701D-05  0.68945608D-05  0.68945608D-05
 -0.00000000D+00 -0.00000000D+00  0.00000000D+00
MO   21     MO 0.0        OCC NO =    0.0000000  ORB. ENERGY =    0.037868
 -0.00000000D+00  0.00000000D+00 -0.00000000D+00  0.00000000D+00  0.00000000D+00
 -0.00000000D+00  0.00000000D+00  0.00000000D+00  0.00000000D+00  0.00000000D+00
  0.00000000D+00 -0.00000000D+00 -0.00000000D+00 -0.00000000D+00 -0.00000000D+00
 -0.00000000D+00  0.00000000D+00 -0.00000000D+00 -0.00000000D+00 -0.00000000D+00
  0.00000000D+00  0.00000000D+00  0.00000000D+00 -0.43345505D-07  0.43345505D-07
 -0.00000000D+00 -0.00000000D+00  0.21495063D-07 -0.00000000D+00  0.59889016D-06
 -0.59889016D-06 -0.00000000D+00 -0.00000000D+00 -0.29699001D-06 -0.00000000D+00
  0.00000000D+00 -0.00000000D+00  0.00000000D+00  0.00000000D+00 -0.00000000D+00
  0.00000000D+00  0.00000000D+00  0.00000000D+00 -0.00000000D+00 -0.00000000D+00
  0.00000000D+00  0.00000000D+00  0.00000000D+00  0.00000000D+00  0.00000000D+00
 -0.00000000D+00 -0.00000000D+00  0.00000000D+00  0.00000000D+00  0.00000000D+00
  0.00000000D+00  0.00000000D+00 -0.43345505D-07  0.43345505D-07  0.00000000D+00
  0.00000000D+00  0.21495063D-07 -0.00000000D+00  0.59889016D-06 -0.59889016D-06
 -0.00000000D+00 -0.00000000D+00 -0.29699001D-06
MO   22     MO 0.0        OCC NO =    0.0000000  ORB. ENERGY =    0.037868
 -0.00000000D+00 -0.00000000D+00  0.00000000D+00  0.00000000D+00 -0.00000000D+00
  0.00000000D+00 -0.00000000D+00  0.00000000D+00 -0.00000000D+00  0.00000000D+00
  0.00000000D+00 -0.00000000D+00 -0.00000000D+00  0.00000000D+00 -0.00000000D+00
 -0.00000000D+00  0.00000000D+00  0.00000000D+00  0.00000000D+00  0.00000000D+00
 -0.00000000D+00 -0.00000000D+00  0.00000000D+00 -0.10747532D-07  0.10747532D-07
 -0.00000000D+00 -0.00000000D+00 -0.86691007D-07  0.00000000D+00  0.14849500D-06
 -0.14849500D-06 -0.00000000D+00 -0.00000000D+00  0.11977803D-05 -0.00000000D+00
 -0.00000000D+00 -0.00000000D+00  0.00000000D+00  0.00000000D+00 -0.00000000D+00
  0.00000000D+00  0.00000000D+00  0.00000000D+00 -0.00000000D+00 -0.00000000D+00
  0.00000000D+00  0.00000000D+00 -0.00000000D+00  0.00000000D+00  0.00000000D+00
 -0.00000000D+00 -0.00000000D+00 -0.00000000D+00  0.00000000D+00  0.00000000D+00
  0.00000000D+00  0.00000000D+00 -0.10747532D-07  0.10747532D-07  0.00000000D+00
 -0.00000000D+00 -0.86691007D-07 -0.00000000D+00  0.14849500D-06 -0.14849500D-06
 -0.00000000D+00 -0.00000000D+00  0.11977803D-05
MO   23     MO 0.0        OCC NO =    0.0000000  ORB. ENERGY =    0.042259
 -0.00000000D+00  0.00000000D+00 -0.00000000D+00  0.00000000D+00  0.00000000D+00
 -0.00000000D+00  0.00000000D+00  0.00000000D+00  0.00000000D+00 -0.00000000D+00
  0.00000000D+00  0.15276158D-05 -0.70101425D-07 -0.00000000D+00 -0.49757265D-04
  0.22833347D-05  0.00000000D+00  0.20769998D-03 -0.95312441D-05 -0.00000000D+00
 -0.31202717D-03  0.14318768D-04  0.00000000D+00  0.00000000D+00  0.00000000D+00
  0.52815575D-06 -0.24236792D-07  0.00000000D+00 -0.00000000D+00 -0.00000000D+00
 -0.00000000D+00 -0.26164381D-05  0.12006698D-06 -0.00000000D+00 -0.00000000D+00
  0.00000000D+00 -0.00000000D+00  0.00000000D+00 -0.00000000D+00  0.00000000D+00
 -0.00000000D+00 -0.00000000D+00 -0.00000000D+00  0.00000000D+00 -0.00000000D+00
  0.15276158D-05 -0.70101425D-07  0.00000000D+00 -0.49757265D-04  0.22833347D-05
 -0.00000000D+00  0.20769998D-03 -0.95312441D-05  0.00000000D+00 -0.31202717D-03
  0.14318768D-04  0.00000000D+00 -0.00000000D+00 -0.00000000D+00 -0.52815575D-06
  0.24236792D-07 -0.00000000D+00 -0.00000000D+00 -0.00000000D+00 -0.00000000D+00
  0.26164381D-05 -0.12006698D-06  0.00000000D+00
MO   24     MO 0.0        OCC NO =    0.0000000  ORB. ENERGY =    0.042259
 -0.00000000D+00  0.00000000D+00 -0.00000000D+00  0.00000000D+00  0.00000000D+00
 -0.00000000D+00  0.00000000D+00  0.00000000D+00  0.00000000D+00 -0.00000000D+00
  0.14254109D-12  0.70101425D-07  0.15276158D-05 -0.00000000D+00 -0.22833347D-05
 -0.49757265D-04  0.00000000D+00  0.95312441D-05  0.20769998D-03 -0.00000000D+00
 -0.14318768D-04 -0.31202717D-03  0.00000000D+00  0.00000000D+00  0.00000000D+00
  0.24236792D-07  0.52815575D-06 -0.00000000D+00 -0.00000000D+00 -0.00000000D+00
 -0.00000000D+00 -0.12006698D-06 -0.26164381D-05  0.00000000D+00 -0.00000000D+00
  0.00000000D+00 -0.00000000D+00  0.00000000D+00 -0.00000000D+00  0.00000000D+00
 -0.00000000D+00  0.00000000D+00 -0.00000000D+00  0.00000000D+00 -0.14254109D-12
  0.70101425D-07  0.15276158D-05  0.00000000D+00 -0.22833347D-05 -0.49757265D-04