 Molden2AIM, Version 3.1.0 (02/25/2015)           Time: Thu Oct 17 19:55:50 2024
GAUSSIAN             68 MOL ORBITALS     68 PRIMITIVES        2 NUCLEI
  Be   1    (CENTRE  1)   0.00000000  0.00000000  0.00000000  CHARGE =  4.0
  Be   2    (CENTRE  2)  51.20000000  0.00000000  0.00000000  CHARGE =  4.0
CENTRE ASSIGNMENTS    1  1  1  1  1  1  1  1  1  1  1  1  1  1  1  1  1  1  1  1
CENTRE ASSIGNMENTS    1  1  1  1  1  1  1  1  1  1  1  1  1  1  2  2  2  2  2  2
CENTRE ASSIGNMENTS    2  2  2  2  2  2  2  2  2  2  2  2  2  2  2  2  2  2  2  2
CENTRE ASSIGNMENTS    2  2  2  2  2  2  2  2
TYPE ASSIGNMENTS      1  1  1  1  1  1  1  1  1  1  2  3  4  2  3  4  2  3  4  2
TYPE ASSIGNMENTS      3  4  5  6  7  8  9 10  5  6  7  8  9 10  1  1  1  1  1  1
TYPE ASSIGNMENTS      1  1  1  1  2  3  4  2  3  4  2  3  4  2  3  4  5  6  7  8
TYPE ASSIGNMENTS      9 10  5  6  7  8  9 10
EXPONENTS  0.1000000D-03 0.3000000D-03 0.9000000D-03 0.2700000D-02 0.8100000D-02
EXPONENTS  0.2430000D-01 0.7290000D-01 0.2187000D+00 0.6561000D+00 0.1968300D+01
EXPONENTS  0.1000000D-03 0.1000000D-03 0.1000000D-03 0.3000000D-03 0.3000000D-03
EXPONENTS  0.3000000D-03 0.9000000D-03 0.9000000D-03 0.9000000D-03 0.2700000D-02
EXPONENTS  0.2700000D-02 0.2700000D-02 0.1000000D-03 0.1000000D-03 0.1000000D-03
EXPONENTS  0.1000000D-03 0.1000000D-03 0.1000000D-03 0.3000000D-03 0.3000000D-03
EXPONENTS  0.3000000D-03 0.3000000D-03 0.3000000D-03 0.3000000D-03 0.1000000D-03
EXPONENTS  0.3000000D-03 0.9000000D-03 0.2700000D-02 0.8100000D-02 0.2430000D-01
EXPONENTS  0.7290000D-01 0.2187000D+00 0.6561000D+00 0.1968300D+01 0.1000000D-03
EXPONENTS  0.1000000D-03 0.1000000D-03 0.3000000D-03 0.3000000D-03 0.3000000D-03
EXPONENTS  0.9000000D-03 0.9000000D-03 0.9000000D-03 0.2700000D-02 0.2700000D-02
EXPONENTS  0.2700000D-02 0.1000000D-03 0.1000000D-03 0.1000000D-03 0.1000000D-03
EXPONENTS  0.1000000D-03 0.1000000D-03 0.3000000D-03 0.3000000D-03 0.3000000D-03
EXPONENTS  0.3000000D-03 0.3000000D-03 0.3000000D-03
MO    1     MO 0.0        OCC NO =    1.0000000  ORB. ENERGY =    0.000982
  0.84638414D-04  0.16978703D-03 -0.85665117D-03 -0.16810804D-02 -0.36983346D-02
 -0.72037958D-02 -0.97466646D-02  0.18146988D-01  0.28963415D-02 -0.11415910D-03
 -0.11967532D-05 -0.00000000D+00  0.00000000D+00  0.10699833D-05 -0.00000000D+00
 -0.00000000D+00 -0.99009553D-05 -0.00000000D+00  0.00000000D+00 -0.17358644D-03
  0.00000000D+00 -0.00000000D+00 -0.76097923D-08 -0.18608507D-08 -0.18608507D-08
 -0.00000000D+00  0.00000000D+00 -0.00000000D+00 -0.51721471D-07 -0.44618790D-07
 -0.44618790D-07 -0.00000000D+00 -0.00000000D+00  0.00000000D+00  0.84638414D-04
  0.16978703D-03 -0.85665117D-03 -0.16810804D-02 -0.36983346D-02 -0.72037958D-02
 -0.97466646D-02  0.18146988D-01  0.28963415D-02 -0.11415910D-03  0.11967532D-05
  0.00000000D+00 -0.00000000D+00 -0.10699833D-05  0.00000000D+00  0.00000000D+00
  0.99009553D-05  0.00000000D+00 -0.00000000D+00  0.17358644D-03 -0.00000000D+00
  0.00000000D+00 -0.76097923D-08 -0.18608507D-08 -0.18608507D-08 -0.00000000D+00
  0.00000000D+00  0.00000000D+00 -0.51721471D-07 -0.44618790D-07 -0.44618790D-07
 -0.00000000D+00  0.00000000D+00 -0.00000000D+00
MO    2     MO 0.0        OCC NO =    0.0000000  ORB. ENERGY =    0.001544
  0.15391366D-04 -0.22395211D-02  0.20703816D-04 -0.29305267D-02 -0.37994716D-02
 -0.88431358D-02 -0.10875549D-01  0.20693882D-01  0.34892816D-02 -0.19045466D-03
 -0.33915145D-06  0.00000000D+00  0.00000000D+00 -0.42292619D-04 -0.00000000D+00
 -0.00000000D+00  0.25424231D-04  0.00000000D+00  0.00000000D+00 -0.20459495D-03
 -0.00000000D+00 -0.00000000D+00 -0.33764871D-08 -0.29840218D-08 -0.29840218D-08
  0.00000000D+00  0.00000000D+00  0.00000000D+00 -0.27601828D-06 -0.54848828D-07
 -0.54848828D-07 -0.00000000D+00 -0.00000000D+00 -0.00000000D+00 -0.15391366D-04
  0.22395211D-02 -0.20703816D-04  0.29305267D-02  0.37994716D-02  0.88431358D-02
  0.10875549D-01 -0.20693882D-01 -0.34892816D-02  0.19045466D-03 -0.33915145D-06
 -0.00000000D+00 -0.00000000D+00 -0.42292619D-04  0.00000000D+00  0.00000000D+00
  0.25424231D-04 -0.00000000D+00 -0.00000000D+00 -0.20459495D-03  0.00000000D+00
  0.00000000D+00  0.33764871D-08  0.29840218D-08  0.29840218D-08  0.00000000D+00
  0.00000000D+00 -0.00000000D+00  0.27601828D-06  0.54848828D-07  0.54848828D-07
  0.00000000D+00  0.00000000D+00 -0.00000000D+00
MO    3     MO 0.0        OCC NO =    0.0000000  ORB. ENERGY =    0.005647
 -0.43670867D-03 -0.26453755D-03  0.34408390D-02 -0.51506895D-02 -0.19290128D-02
 -0.71402455D-02 -0.64177269D-02  0.13230324D-01  0.26490663D-02 -0.25426722D-03
  0.11690345D-04  0.00000000D+00 -0.00000000D+00 -0.16268102D-04 -0.00000000D+00
  0.00000000D+00  0.11184638D-03  0.00000000D+00  0.00000000D+00 -0.10285749D-03
 -0.00000000D+00 -0.00000000D+00  0.64663689D-07  0.47059467D-08  0.47059467D-08
  0.00000000D+00 -0.00000000D+00  0.00000000D+00  0.22412373D-07  0.10470597D-06
  0.10470597D-06 -0.00000000D+00  0.00000000D+00 -0.00000000D+00 -0.43670867D-03
 -0.26453755D-03  0.34408390D-02 -0.51506895D-02 -0.19290128D-02 -0.71402455D-02
 -0.64177269D-02  0.13230324D-01  0.26490663D-02 -0.25426722D-03 -0.11690345D-04
 -0.00000000D+00  0.00000000D+00  0.16268102D-04  0.00000000D+00 -0.00000000D+00
 -0.11184638D-03 -0.00000000D+00 -0.00000000D+00  0.10285749D-03  0.00000000D+00
  0.00000000D+00  0.64663689D-07  0.47059467D-08  0.47059467D-08  0.00000000D+00
 -0.00000000D+00 -0.00000000D+00  0.22412373D-07  0.10470597D-06  0.10470597D-06
 -0.00000000D+00  0.00000000D+00  0.00000000D+00
MO    4     MO 0.0        OCC NO =    0.0000000  ORB. ENERGY =    0.011871
  0.63292237D-05 -0.59076138D-02  0.33772162D-02  0.26755509D-02 -0.11577812D-01
 -0.32613666D-02 -0.10095571D-01  0.16385093D-01  0.17355147D-02  0.19651852D-03
  0.13730418D-05  0.00000000D+00  0.00000000D+00 -0.99911179D-04 -0.00000000D+00
 -0.00000000D+00  0.60014779D-04  0.00000000D+00  0.00000000D+00  0.39456859D-03
  0.00000000D+00 -0.00000000D+00  0.13886652D-07  0.10849536D-07  0.10849536D-07
  0.00000000D+00  0.00000000D+00 -0.00000000D+00 -0.38363608D-06  0.13985676D-06
  0.13985676D-06 -0.00000000D+00 -0.00000000D+00  0.00000000D+00 -0.63292237D-05
  0.59076138D-02 -0.33772162D-02 -0.26755509D-02  0.11577812D-01  0.32613666D-02
  0.10095571D-01 -0.16385093D-01 -0.17355147D-02 -0.19651852D-03  0.13730418D-05
 -0.00000000D+00 -0.00000000D+00 -0.99911179D-04  0.00000000D+00  0.00000000D+00
  0.60014779D-04 -0.00000000D+00 -0.00000000D+00  0.39456859D-03  0.00000000D+00
  0.00000000D+00 -0.13886652D-07 -0.10849536D-07 -0.10849536D-07  0.00000000D+00
  0.00000000D+00  0.00000000D+00  0.38363608D-06 -0.13985676D-06 -0.13985676D-06
 -0.00000000D+00 -0.00000000D+00 -0.00000000D+00
MO    5     MO 0.0        OCC NO =    0.0000000  ORB. ENERGY =    0.012777
  0.00000000D+00 -0.00000000D+00 -0.00000000D+00  0.00000000D+00  0.00000000D+00
  0.00000000D+00  0.00000000D+00 -0.00000000D+00  0.00000000D+00 -0.00000000D+00
 -0.00000000D+00  0.44967867D-07  0.72431530D-06 -0.00000000D+00 -0.46977991D-06
 -0.75669361D-05  0.00000000D+00  0.63418359D-05  0.10215052D-03 -0.00000000D+00
  0.15753766D-04  0.25375236D-03 -0.00000000D+00 -0.00000000D+00 -0.00000000D+00
 -0.93135781D-09 -0.15001763D-07 -0.00000000D+00 -0.00000000D+00 -0.00000000D+00
 -0.00000000D+00  0.11001472D-07  0.17720528D-06  0.00000000D+00  0.00000000D+00
  0.00000000D+00  0.00000000D+00 -0.00000000D+00  0.00000000D+00 -0.00000000D+00
 -0.00000000D+00  0.00000000D+00 -0.00000000D+00  0.00000000D+00  0.00000000D+00
  0.44967867D-07  0.72431530D-06 -0.00000000D+00 -0.46977991D-06 -0.75669361D-05
  0.00000000D+00  0.63418359D-05  0.10215052D-03 -0.00000000D+00  0.15753766D-04
  0.25375236D-03 -0.00000000D+00  0.00000000D+00  0.00000000D+00  0.93135781D-09
  0.15001763D-07  0.00000000D+00  0.00000000D+00  0.00000000D+00  0.00000000D+00
 -0.11001472D-07 -0.17720528D-06  0.00000000D+00
MO    6     MO 0.0        OCC NO =    0.0000000  ORB. ENERGY =    0.012777
 -0.00000000D+00  0.00000000D+00 -0.00000000D+00  0.00000000D+00 -0.00000000D+00
 -0.00000000D+00 -0.00000000D+00  0.00000000D+00  0.00000000D+00 -0.00000000D+00
  0.00000000D+00 -0.72431530D-06  0.44967867D-07  0.00000000D+00  0.75669361D-05
 -0.46977991D-06 -0.00000000D+00 -0.10215052D-03  0.63418359D-05  0.00000000D+00
 -0.25375236D-03  0.15753766D-04  0.00000000D+00  0.00000000D+00  0.00000000D+00
  0.15001763D-07 -0.93135781D-09 -0.00000000D+00  0.00000000D+00  0.00000000D+00
  0.00000000D+00 -0.17720528D-06  0.11001472D-07  0.00000000D+00  0.00000000D+00
 -0.00000000D+00  0.00000000D+00 -0.00000000D+00  0.00000000D+00 -0.00000000D+00
  0.00000000D+00 -0.00000000D+00  0.00000000D+00 -0.00000000D+00 -0.00000000D+00
 -0.72431530D-06  0.44967867D-07  0.00000000D+00  0.75669361D-05 -0.46977991D-06
 -0.00000000D+00 -0.10215052D-03  0.63418359D-05  0.00000000D+00 -0.25375236D-03
  0.15753766D-04  0.00000000D+00 -0.00000000D+00 -0.00000000D+00 -0.15001763D-07
  0.93135781D-09  0.00000000D+00 -0.00000000D+00 -0.00000000D+00 -0.00000000D+00
  0.17720528D-06 -0.11001472D-07 -0.00000000D+00
MO    7     MO 0.0        OCC NO =    0.0000000  ORB. ENERGY =    0.013416
 -0.10281074D-03 -0.55096444D-03 -0.10727593D-02  0.11259706D-01 -0.16147757D-01
  0.13708966D-02 -0.10602148D-01  0.14623998D-01  0.40149176D-03  0.54984443D-03
 -0.94460773D-05 -0.00000000D+00 -0.00000000D+00  0.89213616D-05  0.00000000D+00
  0.00000000D+00 -0.13837091D-03 -0.00000000D+00 -0.00000000D+00  0.71870849D-03
 -0.00000000D+00  0.00000000D+00 -0.36587609D-07  0.11457017D-07  0.11457017D-07
 -0.00000000D+00 -0.00000000D+00 -0.00000000D+00  0.23639987D-06  0.25331164D-06
  0.25331164D-06 -0.00000000D+00  0.00000000D+00  0.00000000D+00 -0.10281074D-03
 -0.55096444D-03 -0.10727593D-02  0.11259706D-01 -0.16147757D-01  0.13708966D-02
 -0.10602148D-01  0.14623998D-01  0.40149176D-03  0.54984443D-03  0.94460773D-05
  0.00000000D+00  0.00000000D+00 -0.89213616D-05 -0.00000000D+00 -0.00000000D+00
  0.13837091D-03 -0.00000000D+00  0.00000000D+00 -0.71870849D-03 -0.00000000D+00
  0.00000000D+00 -0.36587609D-07  0.11457017D-07  0.11457017D-07 -0.00000000D+00
 -0.00000000D+00 -0.00000000D+00  0.23639987D-06  0.25331164D-06  0.25331164D-06
  0.00000000D+00  0.00000000D+00  0.00000000D+00
MO    8     MO 0.0        OCC NO =    0.0000000  ORB. ENERGY =    0.015055
  0.00000000D+00  0.00000000D+00 -0.00000000D+00  0.00000000D+00 -0.00000000D+00
 -0.00000000D+00 -0.00000000D+00 -0.00000000D+00  0.00000000D+00 -0.00000000D+00
 -0.00000000D+00 -0.98478934D-07 -0.48397120D-06  0.00000000D+00  0.75863099D-06
  0.37282626D-05 -0.00000000D+00  0.64316334D-06  0.31608023D-05  0.00000000D+00
  0.12396686D-03  0.60923036D-03 -0.00000000D+00  0.00000000D+00  0.00000000D+00
 -0.84748093D-09 -0.41649054D-08 -0.00000000D+00  0.00000000D+00  0.00000000D+00
  0.00000000D+00  0.17189723D-07  0.84478272D-07 -0.00000000D+00  0.00000000D+00
 -0.00000000D+00  0.00000000D+00 -0.00000000D+00  0.00000000D+00 -0.00000000D+00
  0.00000000D+00 -0.00000000D+00  0.00000000D+00 -0.00000000D+00  0.00000000D+00
  0.98478934D-07  0.48397120D-06  0.00000000D+00 -0.75863099D-06 -0.37282626D-05
 -0.00000000D+00 -0.64316334D-06 -0.31608023D-05  0.00000000D+00 -0.12396686D-03
 -0.60923036D-03 -0.00000000D+00 -0.00000000D+00 -0.00000000D+00 -0.84748093D-09
 -0.41649054D-08 -0.00000000D+00 -0.00000000D+00 -0.00000000D+00 -0.00000000D+00
  0.17189723D-07  0.84478272D-07  0.00000000D+00
MO    9     MO 0.0        OCC NO =    0.0000000  ORB. ENERGY =    0.015055
 -0.00000000D+00  0.00000000D+00 -0.00000000D+00  0.00000000D+00 -0.00000000D+00
  0.00000000D+00 -0.00000000D+00  0.00000000D+00  0.00000000D+00 -0.00000000D+00
  0.00000000D+00  0.48397120D-06 -0.98478934D-07  0.00000000D+00 -0.37282626D-05
  0.75863099D-06 -0.00000000D+00 -0.31608023D-05  0.64316334D-06  0.00000000D+00
 -0.60923036D-03  0.12396686D-03  0.00000000D+00  0.00000000D+00  0.00000000D+00
  0.41649054D-08 -0.84748093D-09  0.00000000D+00  0.00000000D+00  0.00000000D+00
  0.00000000D+00 -0.84478272D-07  0.17189723D-07 -0.00000000D+00  0.00000000D+00
 -0.00000000D+00  0.00000000D+00 -0.00000000D+00  0.00000000D+00 -0.00000000D+00
  0.00000000D+00 -0.00000000D+00  0.00000000D+00 -0.00000000D+00 -0.00000000D+00
 -0.48397120D-06  0.98478934D-07  0.00000000D+00  0.37282626D-05 -0.75863099D-06
 -0.00000000D+00  0.31608023D-05 -0.64316334D-06  0.00000000D+00  0.60923036D-03
 -0.12396686D-03  0.00000000D+00 -0.00000000D+00 -0.00000000D+00  0.41649054D-08
 -0.84748093D-09 -0.00000000D+00 -0.00000000D+00 -0.00000000D+00 -0.00000000D+00
 -0.84478272D-07  0.17189723D-07  0.00000000D+00
MO   10     MO 0.0        OCC NO =    0.0000000  ORB. ENERGY =    0.018473
  0.10413651D-03 -0.24223318D-01  0.99736608D-02 -0.14082720D-01  0.11085944D-01
 -0.24713211D-02  0.51908669D-02 -0.62447205D-02  0.27553947D-03 -0.38086196D-03
  0.51984994D-06  0.00000000D+00 -0.00000000D+00 -0.43657510D-03 -0.00000000D+00
  0.00000000D+00  0.36306455D-03  0.00000000D+00  0.00000000D+00 -0.60412616D-03
 -0.00000000D+00 -0.00000000D+00  0.30507952D-08  0.33493327D-08  0.33493327D-08
  0.00000000D+00 -0.00000000D+00 -0.00000000D+00 -0.23311503D-05 -0.91653836D-07
 -0.91653836D-07 -0.00000000D+00  0.00000000D+00 -0.00000000D+00 -0.10413651D-03
  0.24223318D-01 -0.99736608D-02  0.14082720D-01 -0.11085944D-01  0.24713211D-02
 -0.51908669D-02  0.62447205D-02 -0.27553947D-03  0.38086196D-03  0.51984994D-06
 -0.00000000D+00  0.00000000D+00 -0.43657510D-03  0.00000000D+00 -0.00000000D+00
  0.36306455D-03  0.00000000D+00  0.00000000D+00 -0.60412616D-03 -0.00000000D+00
 -0.00000000D+00 -0.30507952D-08 -0.33493327D-08 -0.33493327D-08  0.00000000D+00
 -0.00000000D+00 -0.00000000D+00  0.23311503D-05  0.91653836D-07  0.91653836D-07
 -0.00000000D+00  0.00000000D+00  0.00000000D+00
MO   11     MO 0.0        OCC NO =    0.0000000  ORB. ENERGY =    0.019112
 -0.00000000D+00  0.00000000D+00  0.00000000D+00 -0.00000000D+00  0.00000000D+00
 -0.00000000D+00  0.00000000D+00 -0.00000000D+00  0.00000000D+00  0.00000000D+00
 -0.00000000D+00 -0.13138027D-06  0.10705066D-05  0.00000000D+00  0.14682249D-05
 -0.11963325D-04  0.00000000D+00 -0.24783103D-04  0.20193660D-03 -0.00000000D+00
  0.10497464D-03 -0.85534978D-03  0.00000000D+00  0.00000000D+00  0.00000000D+00
  0.23790992D-08 -0.19385275D-07  0.00000000D+00  0.00000000D+00  0.00000000D+00
  0.00000000D+00 -0.29392307D-07  0.23949316D-06 -0.00000000D+00 -0.00000000D+00
 -0.00000000D+00 -0.00000000D+00  0.00000000D+00 -0.00000000D+00 -0.00000000D+00
  0.00000000D+00  0.00000000D+00  0.00000000D+00 -0.00000000D+00  0.00000000D+00
 -0.13138027D-06  0.10705066D-05  0.00000000D+00  0.14682249D-05 -0.11963325D-04
  0.00000000D+00 -0.24783103D-04  0.20193660D-03 -0.00000000D+00  0.10497464D-03
 -0.85534978D-03 -0.00000000D+00 -0.00000000D+00 -0.00000000D+00 -0.23790992D-08
  0.19385275D-07 -0.00000000D+00 -0.00000000D+00 -0.00000000D+00 -0.00000000D+00
  0.29392307D-07 -0.23949316D-06  0.00000000D+00
MO   12     MO 0.0        OCC NO =    0.0000000  ORB. ENERGY =    0.019112
 -0.00000000D+00  0.00000000D+00  0.00000000D+00 -0.00000000D+00  0.00000000D+00
 -0.00000000D+00  0.00000000D+00 -0.00000000D+00 -0.00000000D+00  0.00000000D+00
  0.00000000D+00 -0.10705066D-05 -0.13138027D-06  0.00000000D+00  0.11963325D-04
  0.14682249D-05  0.00000000D+00 -0.20193660D-03 -0.24783103D-04 -0.00000000D+00
  0.85534978D-03  0.10497464D-03  0.00000000D+00  0.00000000D+00  0.00000000D+00
  0.19385275D-07  0.23790992D-08  0.00000000D+00  0.00000000D+00  0.00000000D+00
  0.00000000D+00 -0.23949316D-06 -0.29392307D-07 -0.00000000D+00  0.00000000D+00
 -0.00000000D+00 -0.00000000D+00  0.00000000D+00 -0.00000000D+00  0.00000000D+00
 -0.00000000D+00  0.00000000D+00  0.00000000D+00  0.00000000D+00  0.00000000D+00
 -0.10705066D-05 -0.13138027D-06  0.00000000D+00  0.11963325D-04  0.14682249D-05
  0.00000000D+00 -0.20193660D-03 -0.24783103D-04 -0.00000000D+00  0.85534978D-03
  0.10497464D-03 -0.00000000D+00 -0.00000000D+00 -0.00000000D+00 -0.19385275D-07
 -0.23790992D-08 -0.00000000D+00 -0.00000000D+00 -0.00000000D+00 -0.00000000D+00
  0.23949316D-06  0.29392307D-07  0.00000000D+00
MO   13     MO 0.0        OCC NO =    0.0000000  ORB. ENERGY =    0.022962
  0.28251798D-03  0.85652675D-04 -0.55391914D-03  0.82906347D-02 -0.12527258D-01
 -0.97410520D-03 -0.68583820D-02  0.10406191D-01  0.83123731D-03  0.21987382D-03
 -0.68915222D-05 -0.00000000D+00 -0.00000000D+00  0.78471884D-05  0.00000000D+00
  0.00000000D+00 -0.43869189D-04 -0.00000000D+00 -0.00000000D+00 -0.26842681D-03
  0.00000000D+00  0.00000000D+00 -0.39125359D-07 -0.38163649D-08 -0.38163649D-08
 -0.00000000D+00 -0.00000000D+00  0.00000000D+00 -0.34704845D-07 -0.63453715D-07
 -0.63453715D-07  0.00000000D+00  0.00000000D+00 -0.00000000D+00  0.28251798D-03
  0.85652675D-04 -0.55391914D-03  0.82906347D-02 -0.12527258D-01 -0.97410520D-03
 -0.68583820D-02  0.10406191D-01  0.83123731D-03  0.21987382D-03  0.68915222D-05
  0.00000000D+00  0.00000000D+00 -0.78471884D-05 -0.00000000D+00 -0.00000000D+00
  0.43869189D-04  0.00000000D+00  0.00000000D+00  0.26842681D-03 -0.00000000D+00
 -0.00000000D+00 -0.39125359D-07 -0.38163649D-08 -0.38163649D-08 -0.00000000D+00
 -0.00000000D+00 -0.00000000D+00 -0.34704845D-07 -0.63453715D-07 -0.63453715D-07
  0.00000000D+00  0.00000000D+00  0.00000000D+00
MO   14     MO 0.0        OCC NO =    0.0000000  ORB. ENERGY =    0.024808
 -0.24827010D-04  0.65677315D-02 -0.52322740D-02  0.14262164D-01 -0.15851582D-01
 -0.32686192D-03 -0.77471364D-02  0.11358378D-01  0.73451560D-03  0.29691552D-03
 -0.42085087D-06 -0.00000000D+00 -0.00000000D+00  0.11934846D-03  0.00000000D+00
  0.00000000D+00 -0.17433752D-03 -0.00000000D+00 -0.00000000D+00 -0.27479481D-03
  0.00000000D+00  0.00000000D+00 -0.18766647D-08 -0.45083010D-08 -0.45083010D-08
 -0.00000000D+00 -0.00000000D+00 -0.00000000D+00  0.59940027D-06  0.23538065D-07
  0.23538065D-07  0.00000000D+00  0.00000000D+00  0.00000000D+00  0.24827010D-04
 -0.65677315D-02  0.52322740D-02 -0.14262164D-01  0.15851582D-01  0.32686192D-03
  0.77471364D-02 -0.11358378D-01 -0.73451560D-03 -0.29691552D-03 -0.42085087D-06
  0.00000000D+00  0.00000000D+00  0.11934846D-03 -0.00000000D+00 -0.00000000D+00
 -0.17433752D-03  0.00000000D+00  0.00000000D+00 -0.27479481D-03 -0.00000000D+00
 -0.00000000D+00  0.18766647D-08  0.45083010D-08  0.45083010D-08 -0.00000000D+00
 -0.00000000D+00  0.00000000D+00 -0.59940027D-06 -0.23538065D-07 -0.23538065D-07
  0.00000000D+00  0.00000000D+00 -0.00000000D+00
MO   15     MO 0.0        OCC NO =    0.0000000  ORB. ENERGY =    0.025209
 -0.00000000D+00  0.00000000D+00 -0.00000000D+00  0.00000000D+00 -0.00000000D+00
  0.00000000D+00 -0.00000000D+00  0.00000000D+00 -0.00000000D+00  0.00000000D+00
  0.00000000D+00 -0.11322854D-04  0.35476978D-04  0.00000000D+00  0.11718831D-04
 -0.36717663D-04 -0.00000000D+00 -0.10063465D-03  0.31531036D-03 -0.00000000D+00
  0.21860704D-03 -0.68494368D-03  0.00000000D+00  0.00000000D+00  0.00000000D+00
 -0.54832252D-07  0.17180143D-06  0.00000000D+00  0.00000000D+00  0.00000000D+00
  0.00000000D+00  0.37863392D-07 -0.11863428D-06 -0.00000000D+00 -0.00000000D+00
 -0.00000000D+00 -0.00000000D+00  0.00000000D+00 -0.00000000D+00  0.00000000D+00
 -0.00000000D+00  0.00000000D+00 -0.00000000D+00  0.00000000D+00 -0.00000000D+00
  0.11322854D-04 -0.35476978D-04  0.00000000D+00 -0.11718831D-04  0.36717663D-04
 -0.00000000D+00  0.10063465D-03 -0.31531036D-03  0.00000000D+00 -0.21860704D-03
  0.68494368D-03  0.00000000D+00 -0.00000000D+00 -0.00000000D+00 -0.54832252D-07
  0.17180143D-06 -0.00000000D+00 -0.00000000D+00 -0.00000000D+00 -0.00000000D+00
  0.37863392D-07 -0.11863428D-06  0.00000000D+00
MO   16     MO 0.0        OCC NO =    0.0000000  ORB. ENERGY =    0.025209
  0.00000000D+00 -0.00000000D+00 -0.00000000D+00  0.00000000D+00 -0.00000000D+00
 -0.00000000D+00 -0.00000000D+00  0.00000000D+00  0.00000000D+00  0.00000000D+00
  0.00000000D+00  0.35476978D-04  0.11322854D-04 -0.00000000D+00 -0.36717663D-04
 -0.11718831D-04 -0.00000000D+00  0.31531036D-03  0.10063465D-03 -0.00000000D+00
 -0.68494368D-03 -0.21860704D-03  0.00000000D+00 -0.00000000D+00 -0.00000000D+00
  0.17180143D-06  0.54832252D-07  0.00000000D+00 -0.00000000D+00 -0.00000000D+00
 -0.00000000D+00 -0.11863428D-06 -0.37863392D-07 -0.00000000D+00 -0.00000000D+00
  0.00000000D+00  0.00000000D+00 -0.00000000D+00  0.00000000D+00  0.00000000D+00
  0.00000000D+00 -0.00000000D+00 -0.00000000D+00 -0.00000000D+00 -0.00000000D+00
 -0.35476978D-04 -0.11322854D-04 -0.00000000D+00  0.36717663D-04  0.11718831D-04
 -0.00000000D+00 -0.31531036D-03 -0.10063465D-03 -0.00000000D+00  0.68494368D-03
  0.21860704D-03  0.00000000D+00  0.00000000D+00  0.00000000D+00  0.17180143D-06
  0.54832252D-07 -0.00000000D+00  0.00000000D+00  0.00000000D+00  0.00000000D+00
 -0.11863428D-06 -0.37863392D-07  0.00000000D+00
MO   17     MO 0.0        OCC NO =    0.0000000  ORB. ENERGY =    0.031009
 -0.38014061D-02 -0.31041508D-02  0.13485819D-01 -0.10952791D-01  0.55093712D-02
  0.22510687D-02  0.14908171D-02 -0.33568247D-02 -0.79280010D-03  0.96370226D-04
  0.54413526D-04  0.00000000D+00  0.00000000D+00 -0.92879291D-04 -0.00000000D+00
 -0.00000000D+00  0.22201941D-03  0.00000000D+00  0.00000000D+00 -0.57032530D-03
  0.00000000D+00 -0.00000000D+00  0.37464865D-06  0.82459596D-07  0.82459596D-07
  0.00000000D+00  0.00000000D+00  0.00000000D+00  0.75219312D-06  0.16714217D-05
  0.16714217D-05 -0.00000000D+00 -0.00000000D+00 -0.00000000D+00 -0.38014061D-02
 -0.31041508D-02  0.13485819D-01 -0.10952791D-01  0.55093712D-02  0.22510687D-02
  0.14908171D-02 -0.33568247D-02 -0.79280010D-03  0.96370226D-04 -0.54413526D-04
 -0.00000000D+00 -0.00000000D+00  0.92879291D-04  0.00000000D+00  0.00000000D+00
 -0.22201941D-03 -0.00000000D+00 -0.00000000D+00  0.57032530D-03  0.00000000D+00
  0.00000000D+00  0.37464865D-06  0.82459596D-07  0.82459596D-07  0.00000000D+00
  0.00000000D+00 -0.00000000D+00  0.75219312D-06  0.16714217D-05  0.16714217D-05
 -0.00000000D+00 -0.00000000D+00  0.00000000D+00
MO   18     MO 0.0        OCC NO =    0.0000000  ORB. ENERGY =    0.031471
 -0.12248843D-02 -0.27217487D-02  0.12417096D-01 -0.17723542D-01  0.13660783D-01
  0.14702479D-02  0.50931119D-02 -0.80968842D-02 -0.84192991D-03 -0.11253655D-03
 -0.22261164D-05 -0.00000000D+00  0.00000000D+00 -0.10661783D-04  0.00000000D+00
 -0.00000000D+00 -0.14301985D-03 -0.00000000D+00  0.00000000D+00  0.38876777D-03
  0.00000000D+00 -0.00000000D+00  0.35044948D-07  0.43667353D-07  0.43667353D-07
 -0.00000000D+00  0.00000000D+00 -0.00000000D+00  0.73091318D-06  0.98806613D-06
  0.98806613D-06  0.00000000D+00 -0.00000000D+00  0.00000000D+00 -0.12248843D-02
 -0.27217487D-02  0.12417096D-01 -0.17723542D-01  0.13660783D-01  0.14702479D-02
  0.50931119D-02 -0.80968842D-02 -0.84192991D-03 -0.11253655D-03  0.22261164D-05
  0.00000000D+00 -0.00000000D+00  0.10661783D-04 -0.00000000D+00  0.00000000D+00
  0.14301985D-03  0.00000000D+00 -0.00000000D+00 -0.38876777D-03 -0.00000000D+00
  0.00000000D+00  0.35044948D-07  0.43667353D-07  0.43667353D-07 -0.00000000D+00
  0.00000000D+00  0.00000000D+00  0.73091318D-06  0.98806613D-06  0.98806613D-06
  0.00000000D+00 -0.00000000D+00 -0.00000000D+00
MO   19     MO 0.0        OCC NO =    0.0000000  ORB. ENERGY =    0.032455
  0.13292837D-03 -0.22226852D-01 -0.15149661D-02  0.73462452D-02 -0.72877903D-02
  0.48831941D-03 -0.29448789D-02  0.39657124D-02  0.93401712D-04  0.15797990D-03
 -0.20325166D-05  0.00000000D+00 -0.00000000D+00 -0.42797750D-03 -0.00000000D+00
  0.00000000D+00  0.42069717D-03  0.00000000D+00 -0.00000000D+00 -0.57869865D-03
 -0.00000000D+00  0.00000000D+00 -0.22505675D-07 -0.16283137D-07 -0.16283137D-07
  0.00000000D+00 -0.00000000D+00 -0.00000000D+00 -0.26758714D-05 -0.48779073D-06
 -0.48779073D-06 -0.00000000D+00  0.00000000D+00  0.00000000D+00 -0.13292837D-03
  0.22226852D-01  0.15149661D-02 -0.73462452D-02  0.72877903D-02 -0.48831941D-03
  0.29448789D-02 -0.39657124D-02 -0.93401712D-04 -0.15797990D-03 -0.20325166D-05
 -0.00000000D+00  0.00000000D+00 -0.42797750D-03  0.00000000D+00 -0.00000000D+00
  0.42069717D-03 -0.00000000D+00  0.00000000D+00 -0.57869865D-03  0.00000000D+00
 -0.00000000D+00  0.22505675D-07  0.16283137D-07  0.16283137D-07  0.00000000D+00
 -0.00000000D+00  0.00000000D+00  0.26758714D-05  0.48779073D-06  0.48779073D-06
 -0.00000000D+00  0.00000000D+00  0.00000000D+00
MO   20     MO 0.0        OCC NO =    0.0000000  ORB. ENERGY =    0.039473
 -0.68673296D-03 -0.12219841D-01  0.16378676D-01 -0.11958821D-01  0.45109880D-02
  0.48623154D-02  0.73130246D-03 -0.34579789D-02 -0.13391978D-02  0.26288926D-03
  0.48098601D-04  0.00000000D+00  0.00000000D+00 -0.21116395D-03 -0.00000000D+00
 -0.00000000D+00 -0.86017386D-04 -0.00000000D+00  0.00000000D+00  0.96233245D-04
  0.00000000D+00 -0.00000000D+00  0.62871134D-06  0.55568121D-06  0.55568121D-06
  0.00000000D+00  0.00000000D+00  0.00000000D+00  0.27342763D-05  0.37790165D-05
  0.37790165D-05 -0.00000000D+00 -0.00000000D+00 -0.00000000D+00  0.68673296D-03
  0.12219841D-01 -0.16378676D-01  0.11958821D-01 -0.45109880D-02 -0.48623154D-02
 -0.73130246D-03  0.34579789D-02  0.13391978D-02 -0.26288926D-03  0.48098601D-04
 -0.00000000D+00 -0.00000000D+00 -0.21116395D-03  0.00000000D+00 -0.00000000D+00
 -0.86017386D-04 -0.00000000D+00  0.00000000D+00  0.96233245D-04  0.00000000D+00
 -0.00000000D+00 -0.62871134D-06 -0.55568121D-06 -0.55568121D-06  0.00000000D+00
  0.00000000D+00 -0.00000000D+00 -0.27342763D-05 -0.37790165D-05 -0.37790165D-05
 -0.00000000D+00  0.00000000D+00 -0.00000000D+00
MO   21     MO 0.0        OCC NO =    0.0000000  ORB. ENERGY =    0.042164
 -0.00000000D+00 -0.00000000D+00  0.00000000D+00 -0.00000000D+00  0.00000000D+00
  0.00000000D+00 -0.00000000D+00 -0.00000000D+00 -0.00000000D+00  0.00000000D+00
  0.00000000D+00 -0.00000000D+00 -0.00000000D+00 -0.00000000D+00  0.00000000D+00
  0.00000000D+00  0.00000000D+00 -0.00000000D+00 -0.00000000D+00  0.00000000D+00
 -0.00000000D+00  0.00000000D+00  0.00000000D+00 -0.47011455D-08  0.47011455D-08
 -0.00000000D+00 -0.00000000D+00 -0.10441345D-06 -0.00000000D+00  0.60754693D-07
 -0.60754693D-07  0.00000000D+00  0.00000000D+00  0.13493748D-05 -0.00000000D+00
  0.00000000D+00 -0.00000000D+00  0.00000000D+00 -0.00000000D+00 -0.00000000D+00
  0.00000000D+00  0.00000000D+00  0.00000000D+00 -0.00000000D+00 -0.00000000D+00
  0.00000000D+00  0.00000000D+00 -0.00000000D+00 -0.00000000D+00 -0.00000000D+00
  0.00000000D+00  0.00000000D+00  0.00000000D+00  0.00000000D+00 -0.00000000D+00
  0.00000000D+00  0.00000000D+00 -0.47011455D-08  0.47011455D-08 -0.00000000D+00
 -0.00000000D+00 -0.10441345D-06  0.00000000D+00  0.60754693D-07 -0.60754693D-07
  0.00000000D+00  0.00000000D+00  0.13493748D-05
MO   22     MO 0.0        OCC NO =    0.0000000  ORB. ENERGY =    0.042164
  0.00000000D+00  0.00000000D+00 -0.00000000D+00  0.00000000D+00 -0.00000000D+00
 -0.00000000D+00  0.00000000D+00  0.00000000D+00  0.00000000D+00 -0.00000000D+00
 -0.00000000D+00 -0.00000000D+00  0.00000000D+00  0.00000000D+00  0.00000000D+00
 -0.00000000D+00 -0.00000000D+00 -0.00000000D+00 -0.00000000D+00  0.00000000D+00
  0.00000000D+00  0.00000000D+00 -0.00000000D+00 -0.52206727D-07  0.52206727D-07
 -0.00000000D+00  0.00000000D+00  0.94022899D-08  0.00000000D+00  0.67468739D-06
 -0.67468739D-06  0.00000000D+00 -0.00000000D+00 -0.12150937D-06  0.00000000D+00
 -0.00000000D+00  0.00000000D+00 -0.00000000D+00 -0.00000000D+00  0.00000000D+00
 -0.00000000D+00 -0.00000000D+00 -0.00000000D+00  0.00000000D+00  0.00000000D+00
  0.00000000D+00 -0.00000000D+00  0.00000000D+00 -0.00000000D+00  0.00000000D+00
  0.00000000D+00 -0.00000000D+00 -0.00000000D+00 -0.00000000D+00  0.00000000D+00
  0.00000000D+00 -0.00000000D+00 -0.52206727D-07  0.52206727D-07 -0.00000000D+00
  0.00000000D+00  0.94022899D-08 -0.00000000D+00  0.67468739D-06 -0.67468739D-06
  0.00000000D+00 -0.00000000D+00 -0.12150937D-06
MO   23     MO 0.0        OCC NO =    0.0000000  ORB. ENERGY =    0.042759
 -0.49139985D-03  0.67046143D-01 -0.12011004D-01  0.99784315D-02 -0.13113743D-02
 -0.95341157D-02  0.82419300D-03  0.34504960D-02  0.23600130D-02 -0.58681971D-03
  0.11639351D-04 -0.00000000D+00  0.00000000D+00  0.10285804D-02  0.00000000D+00
 -0.00000000D+00  0.47036804D-04 -0.00000000D+00  0.00000000D+00 -0.94537394D-04
  0.00000000D+00  0.00000000D+00  0.23191945D-06  0.28334286D-06  0.28334286D-06
 -0.00000000D+00  0.00000000D+00 -0.00000000D+00  0.52837790D-05 -0.57829006D-06
 -0.57829006D-06  0.00000000D+00 -0.00000000D+00  0.00000000D+00  0.49139985D-03
 -0.67046143D-01  0.12011004D-01 -0.99784315D-02  0.13113743D-02  0.95341157D-02
 -0.82419300D-03 -0.34504960D-02 -0.23600130D-02  0.58681971D-03  0.11639351D-04
  0.00000000D+00 -0.00000000D+00  0.10285804D-02 -0.00000000D+00  0.00000000D+00
  0.47036804D-04  0.00000000D+00 -0.00000000D+00 -0.94537394D-04 -0.00000000D+00
  0.00000000D+00 -0.23191945D-06 -0.28334286D-06 -0.28334286D-06 -0.00000000D+00
  0.00000000D+00 -0.00000000D+00 -0.52837790D-05  0.57829006D-06  0.57829006D-06
  0.00000000D+00 -0.00000000D+00  0.00000000D+00
MO   24     MO 0.0        OCC NO =    0.0000000  ORB. ENERGY =    0.042789
  0.75674115D-02 -0.32855491D-02 -0.17727788D-02 -0.31823791D-03 -0.27869167D-03
  0.16074114D-02 -0.26992849D-03 -0.39754426D-03 -0.39016010D-03  0.10531204D-03
 -0.11746146D-03 -0.00000000D+00 -0.00000000D+00  0.43795177D-04  0.00000000D+00
  0.00000000D+00 -0.43744981D-04 -0.00000000D+00 -0.00000000D+00  0.33233623D-04
 -0.00000000D+00  0.00000000D+00 -0.87874164D-06 -0.19282855D-06 -0.19282855D-06
 -0.00000000D+00 -0.00000000D+00 -0.00000000D+00 -0.85964361D-06 -0.14293134D-05
 -0.14293134D-05  0.00000000D+00  0.00000000D+00  0.00000000D+00  0.75674115D-02
 -0.32855491D-02 -0.17727788D-02 -0.31823791D-03 -0.27869167D-03  0.16074114D-02
 -0.26992849D-03 -0.39754426D-03 -0.39016010D-03  0.10531204D-03  0.11746146D-03
  0.00000000D+00  0.00000000D+00 -0.43795178D-04 -0.00000000D+00 -0.00000000D+00