[Molden Format]
[Title]
 Molden2AIM, Version 3.1.0 (02/25/2015)           Time: Thu Oct 17 19:53:05 2024

[Atoms] AU
E+       1       4     0.00000000     0.00000000     0.00000000
E+       2       4    15.20000000     0.00000000     0.00000000
[GTO]
    1 0
 S   1 1.0
    0.1000000000D-03      0.1000000000D+01
 S   1 1.0
    0.3000000000D-03      0.1000000000D+01
 S   1 1.0
    0.9000000000D-03      0.1000000000D+01
 S   1 1.0
    0.2700000000D-02      0.1000000000D+01
 S   1 1.0
    0.8100000000D-02      0.1000000000D+01
 S   1 1.0
    0.2430000000D-01      0.1000000000D+01
 S   1 1.0
    0.7290000000D-01      0.1000000000D+01
 S   1 1.0
    0.2187000000D+00      0.1000000000D+01
 S   1 1.0
    0.6561000000D+00      0.1000000000D+01
 S   1 1.0
    0.1968300000D+01      0.1000000000D+01
 P   1 1.0
    0.1000000000D-03      0.1000000000D+01
 P   1 1.0
    0.3000000000D-03      0.1000000000D+01
 P   1 1.0
    0.9000000000D-03      0.1000000000D+01
 P   1 1.0
    0.2700000000D-02      0.1000000000D+01
 D   1 1.0
    0.1000000000D-03      0.1000000000D+01
 D   1 1.0
    0.3000000000D-03      0.1000000000D+01

    2 0
 S   1 1.0
    0.1000000000D-03      0.1000000000D+01
 S   1 1.0
    0.3000000000D-03      0.1000000000D+01
 S   1 1.0
    0.9000000000D-03      0.1000000000D+01
 S   1 1.0
    0.2700000000D-02      0.1000000000D+01
 S   1 1.0
    0.8100000000D-02      0.1000000000D+01
 S   1 1.0
    0.2430000000D-01      0.1000000000D+01
 S   1 1.0
    0.7290000000D-01      0.1000000000D+01
 S   1 1.0
    0.2187000000D+00      0.1000000000D+01
 S   1 1.0
    0.6561000000D+00      0.1000000000D+01
 S   1 1.0
    0.1968300000D+01      0.1000000000D+01
 P   1 1.0
    0.1000000000D-03      0.1000000000D+01
 P   1 1.0
    0.3000000000D-03      0.1000000000D+01
 P   1 1.0
    0.9000000000D-03      0.1000000000D+01
 P   1 1.0
    0.2700000000D-02      0.1000000000D+01
 D   1 1.0
    0.1000000000D-03      0.1000000000D+01
 D   1 1.0
    0.3000000000D-03      0.1000000000D+01


[MO]
 Ene=         -0.00625367
 Spin= Alpha
 Occup=        1.00000000
    1        0.0105318600
    2        0.1037792600
    3       -0.0415644500
    4       -0.1376618400
    5       -0.2507626700
    6       -0.2046986100
    7       -0.1240991400
    8        0.1006543100
    9        0.0071350700
   10       -0.0001360200
   11        0.0047509800
   12        0.0000000000
   13        0.0000000000
   14       -0.3186387100
   15       -0.0000000000
   16       -0.0000000000
   17        0.0232411200
   18        0.0000000000
   19        0.0000000000
   20       -0.0318649700
   21       -0.0000000000
   22       -0.0000000000
   23       -0.0009862500
   24       -0.0014651500
   25       -0.0014651500
   26        0.0000000000
   27        0.0000000000
   28       -0.0000000000
   29       -0.0791833900
   30       -0.0071460300
   31       -0.0071460300
   32       -0.0000000000
   33       -0.0000000000
   34        0.0000000000
   35        0.0105318600
   36        0.1037792600
   37       -0.0415644500
   38       -0.1376618400
   39       -0.2507626700
   40       -0.2046986100
   41       -0.1240991400
   42        0.1006543100
   43        0.0071350700
   44       -0.0001360200
   45       -0.0047509800
   46       -0.0000000000
   47       -0.0000000000
   48        0.3186387100
   49        0.0000000000
   50        0.0000000000
   51       -0.0232411200
   52       -0.0000000000
   53       -0.0000000000
   54        0.0318649700
   55        0.0000000000
   56        0.0000000000
   57       -0.0009862500
   58       -0.0014651500
   59       -0.0014651500
   60        0.0000000000
   61        0.0000000000
   62        0.0000000000
   63       -0.0791833900
   64       -0.0071460300
   65       -0.0071460300
   66       -0.0000000000
   67       -0.0000000000
   68       -0.0000000000
 Ene=         -0.00010559
 Spin= Alpha
 Occup=        0.00000000
    1       -0.0020932900
    2       -0.0009097400
    3        2.1432941700
    4        0.1241230000
    5        0.3568334500
    6        0.1983913100
    7        0.1239209400
    8       -0.0991835000
    9       -0.0067960400
   10        0.0000900700
   11        0.0245618000
   12       -0.0000000000
   13        0.0000000000
   14        0.0092371500
   15       -0.0000000000
   16        0.0000000000
   17        0.3968754500
   18        0.0000000000
   19        0.0000000000
   20       -0.1262302200
   21       -0.0000000000
   22       -0.0000000000
   23        0.0518236500
   24        0.0685072800
   25        0.0685072800
   26       -0.0000000000
   27        0.0000000000
   28       -0.0000000000
   29        0.1141929900
   30        0.0861284400
   31        0.0861284400
   32       -0.0000000000
   33        0.0000000000
   34        0.0000000000
   35        0.0020932900
   36        0.0009097400
   37       -2.1432941700
   38       -0.1241230000
   39       -0.3568334500
   40       -0.1983913100
   41       -0.1239209400
   42        0.0991835000
   43        0.0067960400
   44       -0.0000900700
   45        0.0245618000
   46        0.0000000000
   47       -0.0000000000
   48        0.0092371500
   49        0.0000000000
   50       -0.0000000000
   51        0.3968754500
   52       -0.0000000000
   53       -0.0000000000
   54       -0.1262302200
   55        0.0000000000
   56        0.0000000000
   57       -0.0518236500
   58       -0.0685072800
   59       -0.0685072800
   60       -0.0000000000
   61        0.0000000000
   62        0.0000000000
   63       -0.1141929900
   64       -0.0861284400
   65       -0.0861284400
   66       -0.0000000000
   67        0.0000000000
   68       -0.0000000000
 Ene=          0.00288226
 Spin= Alpha
 Occup=        0.00000000
    1        0.1642201800
    2       -0.0793632100
    3       -1.1923584800
    4        0.7618057400
    5       -0.1044437700
    6        0.1128009300
    7        0.0149441800
    8       -0.0212303300
    9       -0.0031278700
   10        0.0002577800
   11        0.0120725300
   12       -0.0000000000
   13       -0.0000000000
   14        1.5424683300
   15        0.0000000000
   16        0.0000000000
   17       -0.3068070500
   18       -0.0000000000
   19       -0.0000000000
   20        0.0614938700
   21        0.0000000000
   22        0.0000000000
   23       -0.0201735600
   24       -0.0240669800
   25       -0.0240669800
   26       -0.0000000000
   27       -0.0000000000
   28        0.0000000000
   29        0.2412953100
   30       -0.1001899000
   31       -0.1001899000
   32        0.0000000000
   33        0.0000000000
   34       -0.0000000000
   35        0.1642201800
   36       -0.0793632100
   37       -1.1923584800
   38        0.7618057400
   39       -0.1044437700
   40        0.1128009300
   41        0.0149441800
   42       -0.0212303300
   43       -0.0031278700
   44        0.0002577800
   45       -0.0120725300
   46        0.0000000000
   47        0.0000000000
   48       -1.5424683300
   49       -0.0000000000
   50       -0.0000000000
   51        0.3068070500
   52        0.0000000000
   53        0.0000000000
   54       -0.0614938700
   55       -0.0000000000
   56        0.0000000000
   57       -0.0201735600
   58       -0.0240669800
   59       -0.0240669800
   60       -0.0000000000
   61       -0.0000000000
   62       -0.0000000000
   63        0.2412953100
   64       -0.1001899000
   65       -0.1001899000
   66        0.0000000000
   67        0.0000000000
   68       -0.0000000000
 Ene=          0.00372576
 Spin= Alpha
 Occup=        0.00000000
    1       -0.0000000000
    2       -0.0000000000
    3       -0.0000000000
    4       -0.0000000000
    5        0.0000000000
    6        0.0000000000
    7        0.0000000000
    8       -0.0000000000
    9        0.0000000000
   10       -0.0000000000
   11       -0.0000000000
   12       -0.0289089700
   13       -0.0000436100
   14        0.0000000000
   15        0.1207574600
   16        0.0001821700
   17       -0.0000000000
   18       -0.5426374500
   19       -0.0008186200
   20       -0.0000000000
   21       -0.0614429300
   22       -0.0000926900
   23        0.0000000000
   24        0.0000000000
   25        0.0000000000
   26       -0.0956269400
   27       -0.0001442600
   28       -0.0000000000
   29        0.0000000000
   30        0.0000000000
   31        0.0000000000
   32        0.0431253400
   33        0.0000650600
   34        0.0000000000
   35       -0.0000000000
   36       -0.0000000000
   37        0.0000000000
   38       -0.0000000000
   39       -0.0000000000
   40       -0.0000000000
   41       -0.0000000000
   42        0.0000000000
   43        0.0000000000
   44       -0.0000000000
   45        0.0000000000
   46       -0.0289089700
   47       -0.0000436100
   48       -0.0000000000
   49        0.1207574600
   50        0.0001821700
   51       -0.0000000000
   52       -0.5426374500
   53       -0.0008186200
   54       -0.0000000000
   55       -0.0614429300
   56       -0.0000926900
   57       -0.0000000000
   58       -0.0000000000
   59       -0.0000000000
   60        0.0956269400
   61        0.0001442600
   62        0.0000000000
   63        0.0000000000
   64       -0.0000000000
   65       -0.0000000000
   66       -0.0431253400
   67       -0.0000650600
   68       -0.0000000000
 Ene=          0.00372576
 Spin= Alpha
 Occup=        0.00000000
    1       -0.0000000000
    2       -0.0000000000
    3        0.0000000000
    4       -0.0000000000
    5        0.0000000000
    6       -0.0000000000
    7        0.0000000000
    8        0.0000000000
    9       -0.0000000000
   10        0.0000000000
   11       -0.0000000000
   12       -0.0000436100
   13        0.0289089700
   14        0.0000000000
   15        0.0001821700
   16       -0.1207574600
   17        0.0000000000
   18       -0.0008186200
   19        0.5426374500
   20       -0.0000000000
   21       -0.0000926900
   22        0.0614429300
   23       -0.0000000000
   24       -0.0000000000
   25       -0.0000000000
   26       -0.0001442600
   27        0.0956269400
   28        0.0000000000
   29        0.0000000000
   30       -0.0000000000
   31       -0.0000000000
   32        0.0000650600
   33       -0.0431253400
   34       -0.0000000000
   35       -0.0000000000
   36       -0.0000000000
   37       -0.0000000000
   38        0.0000000000
   39       -0.0000000000
   40        0.0000000000
   41        0.0000000000
   42       -0.0000000000
   43       -0.0000000000
   44        0.0000000000
   45        0.0000000000
   46       -0.0000436100
   47        0.0289089700
   48       -0.0000000000
   49        0.0001821700
   50       -0.1207574600
   51        0.0000000000
   52       -0.0008186200
   53        0.5426374500
   54       -0.0000000000
   55       -0.0000926900
   56        0.0614429300
   57        0.0000000000
   58        0.0000000000
   59        0.0000000000
   60        0.0001442600
   61       -0.0956269400
   62       -0.0000000000
   63        0.0000000000
   64        0.0000000000
   65        0.0000000000
   66       -0.0000650600
   67        0.0431253400
   68        0.0000000000
 Ene=          0.00492789
 Spin= Alpha
 Occup=        0.00000000
    1       -0.0129879000
    2       -0.0072952300
    3       13.9479972100
    4       -1.5393909900
    5       -0.1835617700
    6       -0.1090703000
    7       -0.0651020200
    8        0.0520077000
    9        0.0035383700
   10       -0.0000393500
   11        0.1520798300
   12       -0.0000000000
   13        0.0000000000
   14        0.0724950200
   15        0.0000000000
   16       -0.0000000000
   17        2.5110149600
   18       -0.0000000000
   19        0.0000000000
   20       -0.3875456900
   21        0.0000000000
   22       -0.0000000000
   23        0.3237112800
   24        0.4208359300
   25        0.4208359300
   26       -0.0000000000
   27        0.0000000000
   28        0.0000000000
   29        0.7228342000
   30        0.5574800700
   31        0.5574800700
   32        0.0000000000
   33       -0.0000000000
   34       -0.0000000000
   35        0.0129879000
   36        0.0072952300
   37      -13.9479972100
   38        1.5393909900
   39        0.1835617700
   40        0.1090703000
   41        0.0651020200
   42       -0.0520077000
   43       -0.0035383700
   44        0.0000393500
   45        0.1520798300
   46        0.0000000000
   47       -0.0000000000
   48        0.0724950200
   49       -0.0000000000
   50        0.0000000000
   51        2.5110149600
   52        0.0000000000
   53       -0.0000000000
   54       -0.3875456900
   55       -0.0000000000
   56        0.0000000000
   57       -0.3237112800
   58       -0.4208359300
   59       -0.4208359300
   60       -0.0000000000
   61        0.0000000000
   62       -0.0000000000
   63       -0.7228342000
   64       -0.5574800700
   65       -0.5574800700
   66        0.0000000000
   67       -0.0000000000
   68        0.0000000000
 Ene=          0.00674372
 Spin= Alpha
 Occup=        0.00000000
    1        0.2416069900
    2        2.8874873500
    3       -0.2094980400
    4       -0.7380340200
    5        0.1842989500
    6       -0.0490864400
    7        0.0241317700
    8       -0.0098344400
    9        0.0009376800
   10       -0.0002211500
   11        0.1300566900
   12        0.0000000000
   13        0.0000000000
   14       -9.4750445800
   15       -0.0000000000
   16        0.0000000000
   17        1.3876437500
   18        0.0000000000
   19        0.0000000000
   20        0.5045573000
   21        0.0000000000
   22        0.0000000000
   23       -0.0275575200
   24       -0.0315682100
   25       -0.0315682100
   26        0.0000000000
   27        0.0000000000
   28       -0.0000000000
   29       -2.2750803700
   30       -0.1661909600
   31       -0.1661909600
   32       -0.0000000000
   33        0.0000000000
   34       -0.0000000000
   35        0.2416069900
   36        2.8874873600
   37       -0.2094980400
   38       -0.7380340200
   39        0.1842989500
   40       -0.0490864400
   41        0.0241317700
   42       -0.0098344400
   43        0.0009376800
   44       -0.0002211500
   45       -0.1300566900
   46       -0.0000000000
   47       -0.0000000000
   48        9.4750445800
   49        0.0000000000
   50       -0.0000000000
   51       -1.3876437500
   52       -0.0000000000
   53       -0.0000000000
   54       -0.5045573000
   55       -0.0000000000
   56       -0.0000000000
   57       -0.0275575200
   58       -0.0315682100
   59       -0.0315682100
   60        0.0000000000
   61        0.0000000000
   62        0.0000000000
   63       -2.2750803700
   64       -0.1661909600
   65       -0.1661909600
   66       -0.0000000000
   67        0.0000000000
   68       -0.0000000000
 Ene=          0.00691741
 Spin= Alpha
 Occup=        0.00000000
    1        0.0000000000
    2        0.0000000000
    3        0.0000000000
    4        0.0000000000
    5        0.0000000000
    6        0.0000000000
    7        0.0000000000
    8       -0.0000000000
    9       -0.0000000000
   10        0.0000000000
   11        0.0000000000
   12       -0.1914210300
   13       -0.4696920200
   14        0.0000000000
   15       -3.6029705600
   16       -8.8406509100
   17        0.0000000000
   18        0.6443559100
   19        1.5810636200
   20        0.0000000000
   21        0.2259465000
   22        0.5544075700
   23        0.0000000000
   24       -0.0000000000
   25       -0.0000000000
   26       -0.0233086000
   27       -0.0571925900
   28        0.0000000000
   29        0.0000000000
   30       -0.0000000000
   31       -0.0000000000
   32       -0.4473003100
   33       -1.0975459800
   34        0.0000000000
   35       -0.0000000000
   36       -0.0000000000
   37       -0.0000000000
   38        0.0000000000
   39       -0.0000000000
   40        0.0000000000
   41       -0.0000000000
   42        0.0000000000
   43       -0.0000000000
   44        0.0000000000
   45       -0.0000000000
   46        0.1914210300
   47        0.4696920200
   48        0.0000000000
   49        3.6029705600
   50        8.8406509100
   51        0.0000000000
   52       -0.6443559100
   53       -1.5810636200
   54        0.0000000000
   55       -0.2259465000
   56       -0.5544075700
   57        0.0000000000
   58       -0.0000000000
   59       -0.0000000000
   60       -0.0233086000
   61       -0.0571925900
   62       -0.0000000000
   63        0.0000000000
   64        0.0000000000
   65        0.0000000000
   66       -0.4473003100
   67       -1.0975459800
   68       -0.0000000000
 Ene=          0.00691741
 Spin= Alpha
 Occup=        0.00000000
    1       -0.0000000000
    2        0.0000000000
    3        0.0000000000
    4       -0.0000000000
    5        0.0000000000
    6       -0.0000000000
    7        0.0000000000
    8       -0.0000000000
    9        0.0000000000
   10       -0.0000000000
   11       -0.0000000000
   12        0.4696920200
   13       -0.1914210300
   14        0.0000000000
   15        8.8406509100
   16       -3.6029705600
   17        0.0000000000
   18       -1.5810636200
   19        0.6443559100
   20        0.0000000000
   21       -0.5544075700
   22        0.2259465000
   23       -0.0000000000
   24       -0.0000000000
   25       -0.0000000000
   26        0.0571925900
   27       -0.0233086000
   28       -0.0000000000
   29        0.0000000000
   30       -0.0000000000
   31       -0.0000000000
   32        1.0975459800
   33       -0.4473003100
   34        0.0000000000
   35        0.0000000000
   36       -0.0000000000
   37       -0.0000000000
   38       -0.0000000000
   39        0.0000000000
   40       -0.0000000000
   41        0.0000000000
   42        0.0000000000
   43        0.0000000000
   44       -0.0000000000
   45        0.0000000000
   46       -0.4696920200
   47        0.1914210300
   48        0.0000000000
   49       -8.8406509100
   50        3.6029705600
   51        0.0000000000
   52        1.5810636200
   53       -0.6443559100
   54       -0.0000000000
   55        0.5544075700
   56       -0.2259465000
   57       -0.0000000000
   58        0.0000000000
   59        0.0000000000
   60        0.0571925900
   61       -0.0233086000
   62        0.0000000000
   63        0.0000000000
   64        0.0000000000
   65        0.0000000000
   66        1.0975459800
   67       -0.4473003100
   68       -0.0000000000
 Ene=          0.00960620
 Spin= Alpha
 Occup=        0.00000000
    1        0.0000000000
    2        0.0000000000
    3        0.0000000000
    4        0.0000000000
    5       -0.0000000000
    6        0.0000000000
    7        0.0000000000
    8       -0.0000000000
    9        0.0000000000
   10       -0.0000000000
   11        0.0000000000
   12        0.0317901200
   13        0.0002455800
   14       -0.0000000000
   15       -0.1331491300
   16       -0.0010285800
   17        0.0000000000
   18        0.7018609100
   19        0.0054219000
   20        0.0000000000
   21       -0.8065351600
   22       -0.0062305100
   23       -0.0000000000
   24       -0.0000000000
   25       -0.0000000000
   26        0.0902239900
   27        0.0006969800
   28        0.0000000000
   29       -0.0000000000
   30       -0.0000000000
   31       -0.0000000000
   32       -0.0326892700
   33       -0.0002525300
   34       -0.0000000000
   35        0.0000000000
   36        0.0000000000
   37       -0.0000000000
   38       -0.0000000000
   39        0.0000000000
   40       -0.0000000000
   41       -0.0000000000
   42        0.0000000000
   43        0.0000000000
   44       -0.0000000000
   45       -0.0000000000
   46        0.0317901200
   47        0.0002455800
   48        0.0000000000
   49       -0.1331491300
   50       -0.0010285800
   51        0.0000000000
   52        0.7018609100
   53        0.0054219000
   54        0.0000000000
   55       -0.8065351600
   56       -0.0062305100
   57        0.0000000000
   58       -0.0000000000
   59       -0.0000000000
   60       -0.0902239900
   61       -0.0006969800
   62       -0.0000000000
   63       -0.0000000000
   64        0.0000000000
   65        0.0000000000
   66        0.0326892700
   67        0.0002525300
   68        0.0000000000
 Ene=          0.00960620
 Spin= Alpha
 Occup=        0.00000000
    1        0.0000000000
    2        0.0000000000
    3       -0.0000000000
    4       -0.0000000000
    5        0.0000000000
    6       -0.0000000000
    7       -0.0000000000
    8        0.0000000000
    9       -0.0000000000
   10        0.0000000000
   11        0.0000000000
   12       -0.0002455800
   13        0.0317901200
   14       -0.0000000000
   15        0.0010285800
   16       -0.1331491300
   17       -0.0000000000
   18       -0.0054219000
   19        0.7018609100
   20       -0.0000000000
   21        0.0062305100
   22       -0.8065351600
   23        0.0000000000
   24        0.0000000000
   25        0.0000000000
   26       -0.0006969800
   27        0.0902239900
   28        0.0000000000
   29       -0.0000000000
   30        0.0000000000
   31        0.0000000000
   32        0.0002525300
   33       -0.0326892700
   34        0.0000000000
   35        0.0000000000
   36        0.0000000000
   37        0.0000000000
   38        0.0000000000
   39       -0.0000000000
   40        0.0000000000
   41        0.0000000000
   42       -0.0000000000
   43       -0.0000000000
   44        0.0000000000
   45        0.0000000000
   46       -0.0002455800
   47        0.0317901200
   48        0.0000000000
   49        0.0010285800
   50       -0.1331491300
   51       -0.0000000000
   52       -0.0054219000
   53        0.7018609100
   54       -0.0000000000
   55        0.0062305100
   56       -0.8065351600
   57       -0.0000000000
   58       -0.0000000000
   59       -0.0000000000
   60        0.0006969800
   61       -0.0902239900
   62       -0.0000000000
   63       -0.0000000000
   64       -0.0000000000
   65       -0.0000000000
   66       -0.0002525300
   67        0.0326892700
   68        0.0000000000
 Ene=          0.01039710
 Spin= Alpha
 Occup=        0.00000000
    1        0.0010412900
    2        0.0595120400
    3       41.9879435700
    4        6.7850202800
    5       -0.0644141300
    6        0.0479254700
    7        0.0153181200
    8       -0.0140875700
    9       -0.0012727600
   10        0.0000540800
   11       -0.0161629500
   12       -0.0000000000
   13        0.0000000000
   14       -0.2142930100
   15        0.0000000000
   16       -0.0000000000
   17        9.5627661700
   18       -0.0000000000
   19        0.0000000000
   20        3.9366779400
   21        0.0000000000
   22       -0.0000000000
   23       -0.2257108100
   24        0.1201577300
   25        0.1201577300
   26       -0.0000000000
   27        0.0000000000
   28        0.0000000000
   29       -0.1231596900
   30       -0.6439810900
   31       -0.6439810900
   32        0.0000000000
   33       -0.0000000000
   34       -0.0000000000
   35       -0.0010412900
   36       -0.0595120400
   37      -41.9879435700
   38       -6.7850202800
   39        0.0644141300
   40       -0.0479254700
   41       -0.0153181200
   42        0.0140875700
   43        0.0012727600
   44       -0.0000540800
   45       -0.0161629500
   46        0.0000000000
   47       -0.0000000000
   48       -0.2142930100
   49       -0.0000000000
   50        0.0000000000
   51        9.5627661700
   52        0.0000000000
   53       -0.0000000000
   54        3.9366779400
   55       -0.0000000000
   56        0.0000000000
   57        0.2257108100
   58       -0.1201577300
   59       -0.1201577300
   60       -0.0000000000
   61        0.0000000000
   62       -0.0000000000
   63        0.1231596900
   64        0.6439810900
   65        0.6439810900
   66        0.0000000000
   67       -0.0000000000
   68        0.0000000000
 Ene=          0.01231970
 Spin= Alpha
 Occup=        0.00000000
    1        0.1668497500
    2       -1.5033115100
    3        0.8260619100
    4       -1.7195948800
    5        1.2020842300
    6       -0.1003035700
    7        0.1262763100
    8       -0.0691089900
    9        0.0005663200
   10       -0.0007011300
   11       -0.0215965700
   12       -0.0000000000
   13       -0.0000000000
   14        5.4160373100
   15        0.0000000000
   16       -0.0000000000
   17       -0.3955360400
   18       -0.0000000000
   19        0.0000000000
   20        0.0467506600
   21        0.0000000000
   22       -0.0000000000
   23       -0.0293378500
   24       -0.0273014200
   25       -0.0273014200
   26       -0.0000000000
   27       -0.0000000000
   28       -0.0000000000
   29        1.1903084800
   30       -0.0381446800
   31       -0.0381446800
   32        0.0000000000
   33       -0.0000000000
   34        0.0000000000
   35        0.1668497500
   36       -1.5033115100
   37        0.8260619100
   38       -1.7195948800
   39        1.2020842300
   40       -0.1003035700
   41        0.1262763100
   42       -0.0691089900
   43        0.0005663200
   44       -0.0007011300
   45        0.0215965700
   46        0.0000000000
   47        0.0000000000
   48       -5.4160373100
   49       -0.0000000000
   50        0.0000000000
   51        0.3955360400
   52        0.0000000000
   53       -0.0000000000
   54       -0.0467506600
   55       -0.0000000000
   56        0.0000000000
   57       -0.0293378500
   58       -0.0273014200
   59       -0.0273014200
   60       -0.0000000000
   61       -0.0000000000
   62        0.0000000000
   63        1.1903084800
   64       -0.0381446800
   65       -0.0381446800
   66        0.0000000000
   67       -0.0000000000
   68       -0.0000000000
 Ene=          0.01476020
 Spin= Alpha
 Occup=        0.00000000
    1        0.0134128200
    2        0.0631450400
    3       16.8946734100
    4        3.7596912100
    5       -1.2129095300
    6        0.0764248100
    7       -0.1240341600
    8        0.0712355100
    9        0.0002331600
   10        0.0006098700
   11       -0.1595151900
   12        0.0000000000
   13        0.0000000000
   14       -0.3137180700
   15        0.0000000000
   16       -0.0000000000
   17        5.0300825600
   18       -0.0000000000
   19        0.0000000000
   20        0.3953950500
   21        0.0000000000
   22       -0.0000000000
   23       -0.4921460500
   24       -0.2962159500
   25       -0.2962159500
   26        0.0000000000
   27        0.0000000000
   28        0.0000000000
   29       -0.8870568500
   30       -1.1498603400
   31       -1.1498603400
   32        0.0000000000
   33       -0.0000000000
   34       -0.0000000000
   35       -0.0134128200
   36       -0.0631450400
   37      -16.8946734100
   38       -3.7596912100
   39        1.2129095300
   40       -0.0764248100
   41        0.1240341600
   42       -0.0712355100
   43       -0.0002331600
   44       -0.0006098700
   45       -0.1595151900
   46       -0.0000000000
   47       -0.0000000000
   48       -0.3137180700
   49       -0.0000000000
   50        0.0000000000
   51        5.0300825600
   52        0.0000000000
   53       -0.0000000000
   54        0.3953950500
   55       -0.0000000000
   56        0.0000000000
   57        0.4921460500
   58        0.2962159500
   59        0.2962159500
   60        0.0000000000
   61        0.0000000000
   62       -0.0000000000
   63        0.8870568500
   64        1.1498603400
   65        1.1498603400
   66        0.0000000000
   67       -0.0000000000
   68        0.0000000000
 Ene=          0.01489480
 Spin= Alpha
 Occup=        0.00000000
    1       -0.6183750800
    2       -4.1606314600
    3        1.5039608500
    4       -0.1195511900
    5       -0.4548276500
    6        0.0245606900
    7       -0.0361438200
    8        0.0204932600
    9       -0.0000387000
   10        0.0001908800
   11       -0.2148352100
   12        0.0000000000
   13       -0.0000000000
   14       11.8685500800
   15        0.0000000000
   16       -0.0000000000
   17       -2.3993731900
   18       -0.0000000000
   19        0.0000000000
   20        1.2860725400
   21        0.0000000000
   22       -0.0000000000
   23        0.0795051800
   24        0.0837795000
   25        0.0837795000
   26        0.0000000000
   27       -0.0000000000
   28       -0.0000000000
   29        3.0166793400
   30        0.4018867900
   31        0.4018867900
   32        0.0000000000
   33       -0.0000000000
   34        0.0000000000
   35       -0.6183750800
   36       -4.1606314600
   37        1.5039608500
   38       -0.1195511900
   39       -0.4548276500
   40        0.0245606900
   41       -0.0361438200
   42        0.0204932600
   43       -0.0000387000
   44        0.0001908800
   45        0.2148352100
   46       -0.0000000000
   47        0.0000000000
   48      -11.8685500800
   49       -0.0000000000
   50        0.0000000000
   51        2.3993731900
   52        0.0000000000
   53       -0.0000000000
   54       -1.2860725400
   55       -0.0000000000
   56        0.0000000000
   57        0.0795051800
   58        0.0837795000
   59        0.0837795000
   60        0.0000000000
   61       -0.0000000000
   62       -0.0000000000
   63        3.0166793400
   64        0.4018867900
   65        0.4018867900
   66        0.0000000000
   67       -0.0000000000
   68       -0.0000000000
 Ene=          0.01492880
 Spin= Alpha
 Occup=        0.00000000
    1        0.0000000000
    2        0.0000000000
    3       -0.0000000000
    4       -0.0000000000
    5        0.0000000000
    6       -0.0000000000
    7        0.0000000000
    8       -0.0000000000
    9        0.0000000000
   10       -0.0000000000
   11        0.0000000000
   12       -0.3311134300
   13       -0.5391092600
   14        0.0000000000
   15       -6.2273082200
   16      -10.1391223600