 Molden2AIM, Version 3.1.0 (02/25/2015)           Time: Thu Oct 17 19:54:49 2024
GAUSSIAN             68 MOL ORBITALS     68 PRIMITIVES        2 NUCLEI
  Be   1    (CENTRE  1)   0.00000000  0.00000000  0.00000000  CHARGE =  4.0
  Be   2    (CENTRE  2)  37.80000000  0.00000000  0.00000000  CHARGE =  4.0
CENTRE ASSIGNMENTS    1  1  1  1  1  1  1  1  1  1  1  1  1  1  1  1  1  1  1  1
CENTRE ASSIGNMENTS    1  1  1  1  1  1  1  1  1  1  1  1  1  1  2  2  2  2  2  2
CENTRE ASSIGNMENTS    2  2  2  2  2  2  2  2  2  2  2  2  2  2  2  2  2  2  2  2
CENTRE ASSIGNMENTS    2  2  2  2  2  2  2  2
TYPE ASSIGNMENTS      1  1  1  1  1  1  1  1  1  1  2  3  4  2  3  4  2  3  4  2
TYPE ASSIGNMENTS      3  4  5  6  7  8  9 10  5  6  7  8  9 10  1  1  1  1  1  1
TYPE ASSIGNMENTS      1  1  1  1  2  3  4  2  3  4  2  3  4  2  3  4  5  6  7  8
TYPE ASSIGNMENTS      9 10  5  6  7  8  9 10
EXPONENTS  0.1000000D-03 0.3000000D-03 0.9000000D-03 0.2700000D-02 0.8100000D-02
EXPONENTS  0.2430000D-01 0.7290000D-01 0.2187000D+00 0.6561000D+00 0.1968300D+01
EXPONENTS  0.1000000D-03 0.1000000D-03 0.1000000D-03 0.3000000D-03 0.3000000D-03
EXPONENTS  0.3000000D-03 0.9000000D-03 0.9000000D-03 0.9000000D-03 0.2700000D-02
EXPONENTS  0.2700000D-02 0.2700000D-02 0.1000000D-03 0.1000000D-03 0.1000000D-03
EXPONENTS  0.1000000D-03 0.1000000D-03 0.1000000D-03 0.3000000D-03 0.3000000D-03
EXPONENTS  0.3000000D-03 0.3000000D-03 0.3000000D-03 0.3000000D-03 0.1000000D-03
EXPONENTS  0.3000000D-03 0.9000000D-03 0.2700000D-02 0.8100000D-02 0.2430000D-01
EXPONENTS  0.7290000D-01 0.2187000D+00 0.6561000D+00 0.1968300D+01 0.1000000D-03
EXPONENTS  0.1000000D-03 0.1000000D-03 0.3000000D-03 0.3000000D-03 0.3000000D-03
EXPONENTS  0.9000000D-03 0.9000000D-03 0.9000000D-03 0.2700000D-02 0.2700000D-02
EXPONENTS  0.2700000D-02 0.1000000D-03 0.1000000D-03 0.1000000D-03 0.1000000D-03
EXPONENTS  0.1000000D-03 0.1000000D-03 0.3000000D-03 0.3000000D-03 0.3000000D-03
EXPONENTS  0.3000000D-03 0.3000000D-03 0.3000000D-03
MO    1     MO 0.0        OCC NO =    1.0000000  ORB. ENERGY =   -0.003872
  0.29945439D-04 -0.50386965D-04 -0.45692528D-04 -0.16820910D-02 -0.57501552D-02
 -0.86586309D-02 -0.12243677D-01  0.22547618D-01  0.35138257D-02 -0.11166013D-03
 -0.19036429D-05 -0.00000000D+00 -0.00000000D+00  0.24962701D-05 -0.00000000D+00
 -0.00000000D+00 -0.77728744D-05 -0.00000000D+00  0.00000000D+00 -0.18514757D-04
  0.00000000D+00 -0.00000000D+00 -0.71611072D-08  0.21122785D-09  0.21122785D-09
 -0.00000000D+00 -0.00000000D+00 -0.00000000D+00  0.26935208D-07  0.57769429D-08
  0.57769429D-08 -0.00000000D+00 -0.00000000D+00  0.00000000D+00  0.29945439D-04
 -0.50386965D-04 -0.45692528D-04 -0.16820910D-02 -0.57501552D-02 -0.86586309D-02
 -0.12243677D-01  0.22547618D-01  0.35138257D-02 -0.11166013D-03  0.19036429D-05
  0.00000000D+00 -0.00000000D+00 -0.24962701D-05  0.00000000D+00  0.00000000D+00
  0.77728744D-05 -0.00000000D+00  0.00000000D+00  0.18514757D-04  0.00000000D+00
 -0.00000000D+00 -0.71611072D-08  0.21122785D-09  0.21122785D-09 -0.00000000D+00
  0.00000000D+00  0.00000000D+00  0.26935208D-07  0.57769429D-08  0.57769429D-08
 -0.00000000D+00 -0.00000000D+00 -0.00000000D+00
MO    2     MO 0.0        OCC NO =    0.0000000  ORB. ENERGY =   -0.003550
  0.51327623D-06  0.59286666D-05  0.48321853D-04  0.22500076D-02  0.55057057D-02
  0.94582925D-02  0.12415939D-01 -0.23236196D-01 -0.37761631D-02  0.16528731D-03
 -0.45805295D-07 -0.00000000D+00 -0.00000000D+00 -0.47629864D-06 -0.00000000D+00
  0.00000000D+00  0.61650739D-05  0.00000000D+00 -0.00000000D+00  0.43960288D-04
 -0.00000000D+00  0.00000000D+00 -0.86407654D-09 -0.24306823D-09 -0.24306823D-09
 -0.00000000D+00 -0.00000000D+00  0.00000000D+00 -0.99930946D-08 -0.14245760D-07
 -0.14245760D-07 -0.00000000D+00  0.00000000D+00 -0.00000000D+00 -0.51327623D-06
 -0.59286666D-05 -0.48321853D-04 -0.22500076D-02 -0.55057057D-02 -0.94582925D-02
 -0.12415939D-01  0.23236196D-01  0.37761631D-02 -0.16528731D-03 -0.45805295D-07
  0.00000000D+00  0.00000000D+00 -0.47629864D-06 -0.00000000D+00 -0.00000000D+00
  0.61650739D-05  0.00000000D+00 -0.00000000D+00  0.43960288D-04 -0.00000000D+00
  0.00000000D+00  0.86407654D-09  0.24306823D-09  0.24306823D-09 -0.00000000D+00
  0.00000000D+00 -0.00000000D+00  0.99930946D-08  0.14245760D-07  0.14245760D-07
  0.00000000D+00 -0.00000000D+00  0.00000000D+00
MO    3     MO 0.0        OCC NO =    0.0000000  ORB. ENERGY =    0.004216
 -0.47939655D-03 -0.11971557D-03  0.37581969D-02 -0.55217148D-02 -0.11626603D-02
 -0.49652482D-02 -0.37404608D-02  0.80851596D-02  0.17583079D-02 -0.19741862D-03
  0.18610170D-04 -0.00000000D+00 -0.00000000D+00 -0.23097317D-04  0.00000000D+00
  0.00000000D+00  0.10490319D-03 -0.00000000D+00 -0.00000000D+00 -0.39776827D-04
  0.00000000D+00  0.00000000D+00  0.75481541D-07  0.42691237D-08  0.42691237D-08
 -0.00000000D+00 -0.00000000D+00 -0.00000000D+00 -0.71174884D-07  0.99746860D-07
  0.99746860D-07  0.00000000D+00  0.00000000D+00  0.00000000D+00 -0.47939655D-03
 -0.11971557D-03  0.37581969D-02 -0.55217148D-02 -0.11626603D-02 -0.49652482D-02
 -0.37404608D-02  0.80851596D-02  0.17583079D-02 -0.19741862D-03 -0.18610170D-04
  0.00000000D+00  0.00000000D+00  0.23097317D-04 -0.00000000D+00 -0.00000000D+00
 -0.10490319D-03  0.00000000D+00 -0.00000000D+00  0.39776827D-04 -0.00000000D+00
  0.00000000D+00  0.75481541D-07  0.42691237D-08  0.42691237D-08 -0.00000000D+00
 -0.00000000D+00  0.00000000D+00 -0.71174884D-07  0.99746860D-07  0.99746860D-07
  0.00000000D+00  0.00000000D+00 -0.00000000D+00
MO    4     MO 0.0        OCC NO =    0.0000000  ORB. ENERGY =    0.006353
 -0.00000000D+00  0.00000000D+00 -0.00000000D+00  0.00000000D+00  0.00000000D+00
  0.00000000D+00  0.00000000D+00 -0.00000000D+00  0.00000000D+00 -0.00000000D+00
  0.00000000D+00  0.13499354D-06  0.37033288D-06 -0.00000000D+00 -0.16301305D-05
 -0.44720012D-05 -0.00000000D+00  0.22217473D-04  0.60950070D-04 -0.00000000D+00
  0.12411302D-03  0.34048412D-03  0.00000000D+00  0.00000000D+00  0.00000000D+00
 -0.10711136D-08 -0.29384305D-08  0.00000000D+00 -0.00000000D+00 -0.00000000D+00
 -0.00000000D+00  0.24287143D-07  0.66627869D-07 -0.00000000D+00 -0.00000000D+00
  0.00000000D+00  0.00000000D+00 -0.00000000D+00  0.00000000D+00 -0.00000000D+00
  0.00000000D+00 -0.00000000D+00  0.00000000D+00 -0.00000000D+00 -0.00000000D+00
  0.13499354D-06  0.37033288D-06  0.00000000D+00 -0.16301305D-05 -0.44720012D-05
 -0.00000000D+00  0.22217473D-04  0.60950070D-04  0.00000000D+00  0.12411302D-03
  0.34048412D-03  0.00000000D+00 -0.00000000D+00 -0.00000000D+00  0.10711136D-08
  0.29384305D-08 -0.00000000D+00 -0.00000000D+00 -0.00000000D+00 -0.00000000D+00
 -0.24287143D-07 -0.66627869D-07  0.00000000D+00
MO    5     MO 0.0        OCC NO =    0.0000000  ORB. ENERGY =    0.006353
 -0.00000000D+00 -0.00000000D+00  0.00000000D+00 -0.00000000D+00 -0.00000000D+00
  0.00000000D+00 -0.00000000D+00  0.00000000D+00 -0.00000000D+00  0.00000000D+00
  0.00000000D+00  0.37033288D-06 -0.13499354D-06  0.00000000D+00 -0.44720012D-05
  0.16301305D-05 -0.00000000D+00  0.60950070D-04 -0.22217473D-04  0.00000000D+00
  0.34048412D-03 -0.12411302D-03  0.00000000D+00  0.00000000D+00  0.00000000D+00
 -0.29384305D-08  0.10711136D-08  0.00000000D+00  0.00000000D+00  0.00000000D+00
  0.00000000D+00  0.66627869D-07 -0.24287143D-07 -0.00000000D+00 -0.00000000D+00
 -0.00000000D+00  0.00000000D+00 -0.00000000D+00  0.00000000D+00 -0.00000000D+00
  0.00000000D+00  0.00000000D+00 -0.00000000D+00  0.00000000D+00 -0.00000000D+00
  0.37033288D-06 -0.13499354D-06 -0.00000000D+00 -0.44720012D-05  0.16301305D-05
 -0.00000000D+00  0.60950070D-04 -0.22217473D-04  0.00000000D+00  0.34048412D-03
 -0.12411302D-03  0.00000000D+00 -0.00000000D+00  0.00000000D+00  0.29384305D-08
 -0.10711136D-08 -0.00000000D+00  0.00000000D+00  0.00000000D+00  0.00000000D+00
 -0.66627869D-07  0.24287143D-07  0.00000000D+00
MO    6     MO 0.0        OCC NO =    0.0000000  ORB. ENERGY =    0.008712
  0.00000000D+00  0.00000000D+00  0.00000000D+00  0.00000000D+00 -0.00000000D+00
  0.00000000D+00 -0.00000000D+00  0.00000000D+00 -0.00000000D+00  0.00000000D+00
 -0.00000000D+00  0.26857113D-05  0.92962992D-06  0.00000000D+00  0.13284486D-05
  0.45982820D-06 -0.00000000D+00  0.12367597D-04  0.42809104D-05  0.00000000D+00
  0.61095116D-03  0.21147415D-03 -0.00000000D+00  0.00000000D+00  0.00000000D+00
  0.93645280D-08  0.32414301D-08  0.00000000D+00  0.00000000D+00  0.00000000D+00
  0.00000000D+00  0.37124711D-07  0.12850319D-07 -0.00000000D+00  0.00000000D+00
 -0.00000000D+00 -0.00000000D+00  0.00000000D+00 -0.00000000D+00 -0.00000000D+00
  0.00000000D+00 -0.00000000D+00  0.00000000D+00 -0.00000000D+00  0.00000000D+00
 -0.26857113D-05 -0.92962992D-06  0.00000000D+00 -0.13284486D-05 -0.45982820D-06
  0.00000000D+00 -0.12367597D-04 -0.42809104D-05 -0.00000000D+00 -0.61095116D-03
 -0.21147415D-03 -0.00000000D+00 -0.00000000D+00 -0.00000000D+00  0.93645280D-08
  0.32414301D-08 -0.00000000D+00 -0.00000000D+00 -0.00000000D+00  0.00000000D+00
  0.37124711D-07  0.12850319D-07  0.00000000D+00
MO    7     MO 0.0        OCC NO =    0.0000000  ORB. ENERGY =    0.008712
  0.00000000D+00  0.00000000D+00  0.00000000D+00 -0.00000000D+00 -0.00000000D+00
  0.00000000D+00 -0.00000000D+00  0.00000000D+00 -0.00000000D+00  0.00000000D+00
 -0.00000000D+00  0.92962992D-06 -0.26857113D-05  0.00000000D+00  0.45982820D-06
 -0.13284486D-05  0.00000000D+00  0.42809104D-05 -0.12367597D-04  0.00000000D+00
  0.21147415D-03 -0.61095116D-03 -0.00000000D+00  0.00000000D+00  0.00000000D+00
  0.32414301D-08 -0.93645280D-08  0.00000000D+00  0.00000000D+00  0.00000000D+00
  0.00000000D+00  0.12850319D-07 -0.37124711D-07 -0.00000000D+00  0.00000000D+00
 -0.00000000D+00  0.00000000D+00 -0.00000000D+00  0.00000000D+00  0.00000000D+00
  0.00000000D+00 -0.00000000D+00  0.00000000D+00 -0.00000000D+00  0.00000000D+00
 -0.92962992D-06  0.26857113D-05  0.00000000D+00 -0.45982820D-06  0.13284486D-05
 -0.00000000D+00 -0.42809104D-05  0.12367597D-04  0.00000000D+00 -0.21147415D-03
  0.61095116D-03 -0.00000000D+00 -0.00000000D+00  0.00000000D+00  0.32414301D-08
 -0.93645280D-08 -0.00000000D+00 -0.00000000D+00  0.00000000D+00  0.00000000D+00
  0.12850319D-07 -0.37124711D-07  0.00000000D+00
MO    8     MO 0.0        OCC NO =    0.0000000  ORB. ENERGY =    0.009471
  0.20956256D-04 -0.14541623D-05 -0.91438698D-02 -0.16457568D-02  0.10925239D-01
  0.93456472D-03  0.80849390D-02 -0.12162372D-01 -0.87700556D-03 -0.28252571D-03
 -0.20142893D-05  0.00000000D+00 -0.00000000D+00  0.12562659D-05 -0.00000000D+00
  0.00000000D+00 -0.21131935D-03  0.00000000D+00 -0.00000000D+00 -0.30120087D-03
 -0.00000000D+00  0.00000000D+00 -0.17603116D-07 -0.29686867D-07 -0.29686867D-07
  0.00000000D+00 -0.00000000D+00  0.00000000D+00 -0.29605845D-06 -0.14036231D-06
 -0.14036231D-06 -0.00000000D+00  0.00000000D+00 -0.00000000D+00 -0.20956256D-04
  0.14541623D-05  0.91438698D-02  0.16457568D-02 -0.10925239D-01 -0.93456472D-03
 -0.80849390D-02  0.12162372D-01  0.87700556D-03  0.28252571D-03 -0.20142893D-05
 -0.00000000D+00  0.00000000D+00  0.12562659D-05  0.00000000D+00 -0.00000000D+00
 -0.21131935D-03 -0.00000000D+00  0.00000000D+00 -0.30120087D-03  0.00000000D+00
 -0.00000000D+00  0.17603116D-07  0.29686867D-07  0.29686867D-07  0.00000000D+00
 -0.00000000D+00  0.00000000D+00  0.29605845D-06  0.14036231D-06  0.14036231D-06
 -0.00000000D+00  0.00000000D+00 -0.00000000D+00
MO    9     MO 0.0        OCC NO =    0.0000000  ORB. ENERGY =    0.009797
 -0.27781803D-03  0.45422697D-03  0.18184355D-02 -0.89484065D-02  0.10574444D-01
 -0.23163205D-02  0.62778682D-02 -0.78380977D-02  0.20036920D-03 -0.43054527D-03
  0.20674065D-04 -0.00000000D+00  0.00000000D+00 -0.22266154D-04 -0.00000000D+00
  0.00000000D+00  0.11898471D-03  0.00000000D+00 -0.00000000D+00 -0.64081510D-03
  0.00000000D+00  0.00000000D+00  0.75695640D-07 -0.38591277D-08 -0.38591277D-08
 -0.00000000D+00  0.00000000D+00 -0.00000000D+00 -0.25089410D-06 -0.90861864D-07
 -0.90861864D-07 -0.00000000D+00  0.00000000D+00 -0.00000000D+00 -0.27781803D-03
  0.45422697D-03  0.18184355D-02 -0.89484065D-02  0.10574444D-01 -0.23163205D-02
  0.62778682D-02 -0.78380977D-02  0.20036920D-03 -0.43054527D-03 -0.20674065D-04
  0.00000000D+00 -0.00000000D+00  0.22266154D-04  0.00000000D+00 -0.00000000D+00
 -0.11898471D-03 -0.00000000D+00  0.00000000D+00  0.64081510D-03 -0.00000000D+00
 -0.00000000D+00  0.75695640D-07 -0.38591277D-08 -0.38591277D-08 -0.00000000D+00
  0.00000000D+00  0.00000000D+00 -0.25089410D-06 -0.90861864D-07 -0.90861864D-07
 -0.00000000D+00  0.00000000D+00  0.00000000D+00
MO   10     MO 0.0        OCC NO =    0.0000000  ORB. ENERGY =    0.013575
 -0.00000000D+00 -0.00000000D+00  0.00000000D+00 -0.00000000D+00  0.00000000D+00
 -0.00000000D+00  0.00000000D+00 -0.00000000D+00 -0.00000000D+00  0.00000000D+00
  0.00000000D+00 -0.38474336D-06  0.93605767D-06  0.00000000D+00  0.49535911D-05
 -0.12051793D-04  0.00000000D+00 -0.82705973D-04  0.20121873D-03  0.00000000D+00
  0.31267077D-03 -0.76070943D-03  0.00000000D+00 -0.00000000D+00 -0.00000000D+00
  0.18213530D-08 -0.44312406D-08 -0.00000000D+00  0.00000000D+00 -0.00000000D+00
 -0.00000000D+00 -0.58914804D-07  0.14333621D-06 -0.00000000D+00 -0.00000000D+00
 -0.00000000D+00  0.00000000D+00 -0.00000000D+00  0.00000000D+00 -0.00000000D+00
  0.00000000D+00 -0.00000000D+00  0.00000000D+00 -0.00000000D+00 -0.00000000D+00
 -0.38474336D-06  0.93605767D-06 -0.00000000D+00  0.49535911D-05 -0.12051793D-04
 -0.00000000D+00 -0.82705973D-04  0.20121873D-03 -0.00000000D+00  0.31267077D-03
 -0.76070943D-03  0.00000000D+00  0.00000000D+00  0.00000000D+00 -0.18213530D-08
  0.44312406D-08 -0.00000000D+00  0.00000000D+00  0.00000000D+00  0.00000000D+00
  0.58914804D-07 -0.14333621D-06  0.00000000D+00
MO   11     MO 0.0        OCC NO =    0.0000000  ORB. ENERGY =    0.013575
  0.00000000D+00  0.00000000D+00 -0.00000000D+00  0.00000000D+00 -0.00000000D+00
  0.00000000D+00 -0.00000000D+00  0.00000000D+00 -0.00000000D+00  0.00000000D+00
 -0.00000000D+00 -0.93605767D-06 -0.38474336D-06 -0.00000000D+00  0.12051793D-04
  0.49535911D-05  0.00000000D+00 -0.20121873D-03 -0.82705973D-04 -0.00000000D+00
  0.76070943D-03  0.31267077D-03 -0.00000000D+00 -0.00000000D+00 -0.00000000D+00
  0.44312406D-08  0.18213530D-08  0.00000000D+00 -0.00000000D+00 -0.00000000D+00
 -0.00000000D+00 -0.14333621D-06 -0.58914804D-07  0.00000000D+00  0.00000000D+00
  0.00000000D+00  0.00000000D+00  0.00000000D+00 -0.00000000D+00  0.00000000D+00
 -0.00000000D+00  0.00000000D+00 -0.00000000D+00  0.00000000D+00  0.00000000D+00
 -0.93605767D-06 -0.38474336D-06  0.00000000D+00  0.12051793D-04  0.49535911D-05
  0.00000000D+00 -0.20121873D-03 -0.82705973D-04  0.00000000D+00  0.76070943D-03
  0.31267077D-03 -0.00000000D+00  0.00000000D+00  0.00000000D+00 -0.44312406D-08
 -0.18213530D-08 -0.00000000D+00  0.00000000D+00  0.00000000D+00  0.00000000D+00
  0.14333621D-06  0.58914804D-07 -0.00000000D+00
MO   12     MO 0.0        OCC NO =    0.0000000  ORB. ENERGY =    0.013988
 -0.13105479D-03  0.17118614D-03  0.10841597D-02 -0.12480118D-01  0.16978499D-01
  0.41092504D-03  0.96674367D-02 -0.14182249D-01 -0.88945427D-03 -0.37607720D-03
  0.11135237D-04 -0.00000000D+00  0.00000000D+00 -0.61879349D-05  0.00000000D+00
 -0.00000000D+00  0.69456179D-04 -0.00000000D+00 -0.00000000D+00  0.16962839D-03
  0.00000000D+00  0.00000000D+00  0.39576065D-07 -0.25401049D-08 -0.25401049D-08
 -0.00000000D+00  0.00000000D+00 -0.00000000D+00 -0.72733357D-07 -0.64994324D-07
 -0.64994324D-07  0.00000000D+00 -0.00000000D+00 -0.00000000D+00 -0.13105479D-03
  0.17118614D-03  0.10841597D-02 -0.12480118D-01  0.16978499D-01  0.41092504D-03
  0.96674367D-02 -0.14182249D-01 -0.88945427D-03 -0.37607720D-03 -0.11135237D-04
  0.00000000D+00 -0.00000000D+00  0.61879349D-05 -0.00000000D+00  0.00000000D+00
 -0.69456179D-04  0.00000000D+00 -0.00000000D+00 -0.16962839D-03 -0.00000000D+00
  0.00000000D+00  0.39576065D-07 -0.25401049D-08 -0.25401049D-08 -0.00000000D+00
  0.00000000D+00  0.00000000D+00 -0.72733357D-07 -0.64994324D-07 -0.64994324D-07
  0.00000000D+00 -0.00000000D+00  0.00000000D+00
MO   13     MO 0.0        OCC NO =    0.0000000  ORB. ENERGY =    0.014501
  0.90445603D-05  0.65732059D-04  0.31717078D-03 -0.16063803D-02  0.15633639D-02
 -0.31098401D-02  0.19079655D-03  0.13423424D-02  0.86674940D-03 -0.21735116D-03
 -0.82630930D-06  0.00000000D+00 -0.00000000D+00 -0.44622189D-05 -0.00000000D+00
  0.00000000D+00  0.60141946D-04  0.00000000D+00 -0.00000000D+00 -0.92281990D-03
 -0.00000000D+00  0.00000000D+00 -0.12662207D-07 -0.77339887D-08 -0.77339887D-08
  0.00000000D+00 -0.00000000D+00 -0.00000000D+00 -0.14698351D-06 -0.17169620D-06
 -0.17169620D-06 -0.00000000D+00  0.00000000D+00  0.00000000D+00 -0.90445603D-05
 -0.65732059D-04 -0.31717078D-03  0.16063803D-02 -0.15633639D-02  0.31098401D-02
 -0.19079655D-03 -0.13423424D-02 -0.86674940D-03  0.21735116D-03 -0.82630930D-06
 -0.00000000D+00  0.00000000D+00 -0.44622189D-05  0.00000000D+00 -0.00000000D+00
  0.60141946D-04 -0.00000000D+00  0.00000000D+00 -0.92281990D-03  0.00000000D+00
 -0.00000000D+00  0.12662207D-07  0.77339887D-08  0.77339887D-08  0.00000000D+00
 -0.00000000D+00  0.00000000D+00  0.14698351D-06  0.17169620D-06  0.17169620D-06
 -0.00000000D+00  0.00000000D+00 -0.00000000D+00
MO   14     MO 0.0        OCC NO =    0.0000000  ORB. ENERGY =    0.018160
  0.13276655D-04 -0.86842025D-04 -0.16551692D-01  0.23284027D-01 -0.23136275D-01
  0.21202577D-02 -0.10819382D-01  0.14524478D-01  0.29359945D-03  0.58766059D-03
 -0.13424525D-05  0.00000000D+00 -0.00000000D+00  0.56514139D-05  0.00000000D+00
  0.00000000D+00 -0.42596483D-03 -0.00000000D+00 -0.00000000D+00  0.17734909D-03
  0.00000000D+00  0.00000000D+00 -0.42014401D-08 -0.25509938D-07 -0.25509938D-07
  0.00000000D+00 -0.00000000D+00  0.00000000D+00 -0.19093732D-06  0.40788787D-07
  0.40788787D-07  0.00000000D+00  0.00000000D+00 -0.00000000D+00 -0.13276655D-04
  0.86842025D-04  0.16551692D-01 -0.23284027D-01  0.23136275D-01 -0.21202577D-02
  0.10819382D-01 -0.14524478D-01 -0.29359945D-03 -0.58766059D-03 -0.13424525D-05
 -0.00000000D+00  0.00000000D+00  0.56514139D-05 -0.00000000D+00 -0.00000000D+00
 -0.42596483D-03  0.00000000D+00  0.00000000D+00  0.17734909D-03 -0.00000000D+00
 -0.00000000D+00  0.42014401D-08  0.25509938D-07  0.25509938D-07  0.00000000D+00
 -0.00000000D+00 -0.00000000D+00  0.19093732D-06 -0.40788787D-07 -0.40788787D-07
  0.00000000D+00  0.00000000D+00  0.00000000D+00
MO   15     MO 0.0        OCC NO =    0.0000000  ORB. ENERGY =    0.019967
  0.00000000D+00  0.00000000D+00  0.00000000D+00 -0.00000000D+00  0.00000000D+00
 -0.00000000D+00  0.00000000D+00 -0.00000000D+00  0.00000000D+00 -0.00000000D+00
  0.00000000D+00 -0.30103199D-04 -0.94626781D-04  0.00000000D+00  0.26336690D-04
  0.82787090D-04  0.00000000D+00 -0.11658694D-03 -0.36648086D-03 -0.00000000D+00
  0.21983379D-03  0.69102833D-03  0.00000000D+00  0.00000000D+00  0.00000000D+00
 -0.11204998D-06 -0.35221936D-06 -0.00000000D+00  0.00000000D+00  0.00000000D+00
  0.00000000D+00  0.18060431D-06  0.56771388D-06  0.00000000D+00 -0.00000000D+00
 -0.00000000D+00 -0.00000000D+00  0.00000000D+00 -0.00000000D+00 -0.00000000D+00
 -0.00000000D+00  0.00000000D+00 -0.00000000D+00 -0.00000000D+00 -0.00000000D+00
  0.30103199D-04  0.94626781D-04  0.00000000D+00 -0.26336690D-04 -0.82787090D-04
  0.00000000D+00  0.11658694D-03  0.36648086D-03 -0.00000000D+00 -0.21983379D-03
 -0.69102833D-03  0.00000000D+00 -0.00000000D+00 -0.00000000D+00 -0.11204998D-06
 -0.35221936D-06  0.00000000D+00 -0.00000000D+00  0.00000000D+00  0.00000000D+00
  0.18060431D-06  0.56771388D-06 -0.00000000D+00
MO   16     MO 0.0        OCC NO =    0.0000000  ORB. ENERGY =    0.019967
 -0.00000000D+00  0.00000000D+00  0.00000000D+00 -0.00000000D+00  0.00000000D+00
  0.00000000D+00  0.00000000D+00 -0.00000000D+00  0.00000000D+00 -0.00000000D+00
 -0.00000000D+00  0.94626781D-04 -0.30103199D-04  0.00000000D+00 -0.82787090D-04
  0.26336690D-04 -0.00000000D+00  0.36648086D-03 -0.11658694D-03  0.00000000D+00
 -0.69102833D-03  0.21983379D-03 -0.00000000D+00  0.00000000D+00  0.00000000D+00
  0.35221936D-06 -0.11204998D-06 -0.00000000D+00  0.00000000D+00  0.00000000D+00
  0.00000000D+00 -0.56771388D-06  0.18060431D-06  0.00000000D+00  0.00000000D+00
 -0.00000000D+00  0.00000000D+00 -0.00000000D+00 -0.00000000D+00  0.00000000D+00
 -0.00000000D+00  0.00000000D+00 -0.00000000D+00  0.00000000D+00  0.00000000D+00
 -0.94626781D-04  0.30103199D-04  0.00000000D+00  0.82787090D-04 -0.26336690D-04
  0.00000000D+00 -0.36648086D-03  0.11658694D-03 -0.00000000D+00  0.69102833D-03
 -0.21983379D-03 -0.00000000D+00 -0.00000000D+00 -0.00000000D+00  0.35221936D-06
 -0.11204998D-06  0.00000000D+00 -0.00000000D+00  0.00000000D+00  0.00000000D+00
 -0.56771388D-06  0.18060431D-06 -0.00000000D+00
MO   17     MO 0.0        OCC NO =    0.0000000  ORB. ENERGY =    0.024743
  0.89928702D-03 -0.23534544D-02  0.67330652D-02 -0.10370808D-01  0.83419999D-02
  0.19868324D-02  0.31446175D-02 -0.55393738D-02 -0.80781545D-03 -0.24279091D-05
 -0.63651165D-04  0.00000000D+00 -0.00000000D+00  0.66666021D-04 -0.00000000D+00
  0.00000000D+00 -0.26942000D-03  0.00000000D+00  0.00000000D+00  0.54954065D-03
  0.00000000D+00 -0.00000000D+00 -0.23667123D-06  0.10115952D-07  0.10115952D-07
  0.00000000D+00 -0.00000000D+00 -0.00000000D+00  0.86632814D-06  0.34531916D-06
  0.34531916D-06 -0.00000000D+00  0.00000000D+00  0.00000000D+00  0.89928702D-03
 -0.23534544D-02  0.67330652D-02 -0.10370808D-01  0.83419999D-02  0.19868324D-02
  0.31446175D-02 -0.55393738D-02 -0.80781545D-03 -0.24279091D-05  0.63651165D-04
 -0.00000000D+00  0.00000000D+00 -0.66666021D-04  0.00000000D+00 -0.00000000D+00
  0.26942000D-03 -0.00000000D+00 -0.00000000D+00 -0.54954065D-03 -0.00000000D+00
  0.00000000D+00 -0.23667123D-06  0.10115952D-07  0.10115952D-07  0.00000000D+00
 -0.00000000D+00  0.00000000D+00  0.86632814D-06  0.34531916D-06  0.34531916D-06
 -0.00000000D+00  0.00000000D+00 -0.00000000D+00
MO   18     MO 0.0        OCC NO =    0.0000000  ORB. ENERGY =    0.026980
  0.47650811D-04  0.55889158D-03  0.59754290D-02  0.21287222D-02 -0.18724588D-02
 -0.12870348D-02 -0.76634189D-03  0.17225801D-02  0.38698558D-03 -0.42245618D-04
 -0.42671602D-05 -0.00000000D+00  0.00000000D+00 -0.41456377D-04  0.00000000D+00
 -0.00000000D+00  0.73222730D-03 -0.00000000D+00  0.00000000D+00 -0.70826955D-03
 -0.00000000D+00  0.00000000D+00 -0.77371854D-07 -0.30500429D-07 -0.30500429D-07
 -0.00000000D+00  0.00000000D+00 -0.00000000D+00 -0.92385543D-06 -0.11888481D-05
 -0.11888481D-05 -0.00000000D+00 -0.00000000D+00 -0.00000000D+00 -0.47650811D-04
 -0.55889158D-03 -0.59754290D-02 -0.21287222D-02  0.18724588D-02  0.12870348D-02
  0.76634189D-03 -0.17225801D-02 -0.38698558D-03  0.42245618D-04 -0.42671602D-05
  0.00000000D+00 -0.00000000D+00 -0.41456377D-04 -0.00000000D+00  0.00000000D+00
  0.73222730D-03  0.00000000D+00 -0.00000000D+00 -0.70826955D-03  0.00000000D+00
 -0.00000000D+00  0.77371854D-07  0.30500429D-07  0.30500429D-07 -0.00000000D+00
  0.00000000D+00  0.00000000D+00  0.92385543D-06  0.11888481D-05  0.11888481D-05
  0.00000000D+00 -0.00000000D+00  0.00000000D+00
MO   19     MO 0.0        OCC NO =    0.0000000  ORB. ENERGY =    0.029573
 -0.37793425D-02 -0.37512377D-02  0.17730052D-01 -0.17767801D-01  0.84346265D-02
  0.50212652D-02  0.20108421D-02 -0.54638683D-02 -0.15662673D-02  0.24249482D-03
  0.64200630D-04 -0.00000000D+00 -0.00000000D+00 -0.12302768D-03  0.00000000D+00
  0.00000000D+00  0.83998099D-04 -0.00000000D+00 -0.00000000D+00 -0.21085845D-03
  0.00000000D+00 -0.00000000D+00  0.33972030D-06  0.88139367D-07  0.88139367D-07
 -0.00000000D+00 -0.00000000D+00 -0.00000000D+00  0.68442847D-06  0.18861558D-05
  0.18861558D-05  0.00000000D+00  0.00000000D+00  0.00000000D+00 -0.37793425D-02
 -0.37512377D-02  0.17730052D-01 -0.17767801D-01  0.84346265D-02  0.50212652D-02
  0.20108421D-02 -0.54638683D-02 -0.15662673D-02  0.24249482D-03 -0.64200630D-04
  0.00000000D+00  0.00000000D+00  0.12302768D-03 -0.00000000D+00 -0.00000000D+00
 -0.83998099D-04  0.00000000D+00  0.00000000D+00  0.21085845D-03 -0.00000000D+00
 -0.00000000D+00  0.33972030D-06  0.88139367D-07  0.88139367D-07 -0.00000000D+00
 -0.00000000D+00  0.00000000D+00  0.68442847D-06  0.18861558D-05  0.18861558D-05
  0.00000000D+00  0.00000000D+00 -0.00000000D+00
MO   20     MO 0.0        OCC NO =    0.0000000  ORB. ENERGY =    0.038561
  0.44073056D-03  0.70989521D-03 -0.16330102D-01  0.10355228D-01  0.94269497D-03
 -0.13672990D-01  0.19011342D-02  0.38130694D-02  0.32380369D-02 -0.84698497D-03
 -0.39991788D-04 -0.00000000D+00  0.00000000D+00 -0.16579210D-04  0.00000000D+00
 -0.00000000D+00  0.18852173D-03 -0.00000000D+00  0.00000000D+00 -0.20562476D-03
  0.00000000D+00 -0.00000000D+00 -0.62368221D-06 -0.59705413D-06 -0.59705413D-06
 -0.00000000D+00  0.00000000D+00 -0.00000000D+00 -0.46789681D-05 -0.44455083D-05
 -0.44455083D-05  0.00000000D+00 -0.00000000D+00  0.00000000D+00 -0.44073056D-03
 -0.70989521D-03  0.16330102D-01 -0.10355228D-01 -0.94269497D-03  0.13672990D-01
 -0.19011342D-02 -0.38130694D-02 -0.32380369D-02  0.84698497D-03 -0.39991788D-04
  0.00000000D+00 -0.00000000D+00 -0.16579210D-04 -0.00000000D+00  0.00000000D+00
  0.18852173D-03  0.00000000D+00 -0.00000000D+00 -0.20562476D-03 -0.00000000D+00
  0.00000000D+00  0.62368221D-06  0.59705413D-06  0.59705413D-06 -0.00000000D+00
  0.00000000D+00  0.00000000D+00  0.46789681D-05  0.44455083D-05  0.44455083D-05
  0.00000000D+00 -0.00000000D+00 -0.00000000D+00
MO   21     MO 0.0        OCC NO =    0.0000000  ORB. ENERGY =    0.040021
  0.00000000D+00 -0.00000000D+00 -0.00000000D+00  0.00000000D+00 -0.00000000D+00
 -0.00000000D+00 -0.00000000D+00  0.00000000D+00  0.00000000D+00 -0.00000000D+00
 -0.00000000D+00  0.00000000D+00 -0.00000000D+00  0.00000000D+00 -0.00000000D+00
  0.00000000D+00  0.00000000D+00  0.00000000D+00  0.00000000D+00  0.00000000D+00
 -0.00000000D+00 -0.00000000D+00 -0.00000000D+00 -0.18130620D-07  0.18130620D-07
  0.00000000D+00 -0.00000000D+00  0.89245640D-07 -0.00000000D+00  0.24311610D-06
 -0.24311610D-06 -0.00000000D+00 -0.00000000D+00 -0.11967076D-05  0.00000000D+00
 -0.00000000D+00  0.00000000D+00 -0.00000000D+00  0.00000000D+00 -0.00000000D+00
  0.00000000D+00 -0.00000000D+00  0.00000000D+00 -0.00000000D+00  0.00000000D+00
 -0.00000000D+00  0.00000000D+00 -0.00000000D+00  0.00000000D+00 -0.00000000D+00
  0.00000000D+00 -0.00000000D+00  0.00000000D+00 -0.00000000D+00  0.00000000D+00
 -0.00000000D+00  0.00000000D+00 -0.18130620D-07  0.18130620D-07  0.00000000D+00
 -0.00000000D+00  0.89245640D-07  0.00000000D+00  0.24311610D-06 -0.24311610D-06
 -0.00000000D+00  0.00000000D+00 -0.11967076D-05
MO   22     MO 0.0        OCC NO =    0.0000000  ORB. ENERGY =    0.040021
 -0.00000000D+00  0.00000000D+00 -0.00000000D+00  0.00000000D+00  0.00000000D+00
 -0.00000000D+00  0.00000000D+00  0.00000000D+00  0.00000000D+00 -0.00000000D+00
  0.00000000D+00 -0.00000000D+00  0.00000000D+00 -0.00000000D+00  0.00000000D+00
 -0.00000000D+00  0.00000000D+00 -0.00000000D+00  0.00000000D+00 -0.00000000D+00
  0.00000000D+00 -0.00000000D+00  0.00000000D+00 -0.44622820D-07  0.44622820D-07
 -0.00000000D+00  0.00000000D+00 -0.36261240D-07 -0.00000000D+00  0.59835382D-06
 -0.59835382D-06  0.00000000D+00 -0.00000000D+00  0.48623219D-06 -0.00000000D+00
  0.00000000D+00  0.00000000D+00 -0.00000000D+00 -0.00000000D+00  0.00000000D+00
 -0.00000000D+00 -0.00000000D+00 -0.00000000D+00  0.00000000D+00 -0.00000000D+00
  0.00000000D+00 -0.00000000D+00  0.00000000D+00 -0.00000000D+00  0.00000000D+00
  0.00000000D+00  0.00000000D+00 -0.00000000D+00 -0.00000000D+00 -0.00000000D+00
  0.00000000D+00  0.00000000D+00 -0.44622820D-07  0.44622820D-07 -0.00000000D+00
  0.00000000D+00 -0.36261240D-07  0.00000000D+00  0.59835382D-06 -0.59835382D-06
  0.00000000D+00  0.00000000D+00  0.48623219D-06
MO   23     MO 0.0        OCC NO =    0.0000000  ORB. ENERGY =    0.042509
  0.22155077D-03 -0.10240040D-02  0.40074410D-02 -0.28337651D-02 -0.50124500D-02
  0.13412948D-01 -0.28748190D-02 -0.21558794D-02 -0.29701298D-02  0.83777076D-03
 -0.18373110D-04 -0.00000000D+00  0.00000000D+00  0.10426262D-03  0.00000000D+00
 -0.00000000D+00 -0.12590999D-03 -0.00000000D+00  0.00000000D+00  0.13986528D-03
  0.00000000D+00 -0.00000000D+00 -0.48807165D-06 -0.44892920D-06 -0.44892920D-06
 -0.00000000D+00  0.00000000D+00 -0.00000000D+00  0.11669659D-06 -0.42662797D-06
 -0.42662797D-06  0.00000000D+00 -0.00000000D+00  0.00000000D+00 -0.22155077D-03
  0.10240040D-02 -0.40074410D-02  0.28337651D-02  0.50124500D-02 -0.13412948D-01
  0.28748190D-02  0.21558794D-02  0.29701298D-02 -0.83777076D-03 -0.18373110D-04
  0.00000000D+00 -0.00000000D+00  0.10426262D-03 -0.00000000D+00  0.00000000D+00
 -0.12590999D-03  0.00000000D+00 -0.00000000D+00  0.13986528D-03 -0.00000000D+00
  0.00000000D+00  0.48807165D-06  0.44892920D-06  0.44892920D-06 -0.00000000D+00
  0.00000000D+00 -0.00000000D+00 -0.11669659D-06  0.42662797D-06  0.42662797D-06
  0.00000000D+00 -0.00000000D+00  0.00000000D+00
MO   24     MO 0.0        OCC NO =    0.0000000  ORB. ENERGY =    0.043265
  0.10879062D-01 -0.40443532D-02 -0.13077527D-02  0.21936365D-03 -0.16038222D-02
  0.35468949D-02 -0.81398904D-03 -0.48675964D-03 -0.77557141D-03  0.22226620D-03
 -0.37581989D-03  0.00000000D+00  0.00000000D+00  0.12010668D-03 -0.00000000D+00
 -0.00000000D+00 -0.72813652D-04  0.00000000D+00 -0.00000000D+00  0.75248470D-04
 -0.00000000D+00  0.00000000D+00 -0.16841412D-05 -0.15674312D-06 -0.15674312D-06
  0.00000000D+00  0.00000000D+00 -0.00000000D+00  0.69013378D-07 -0.10913889D-05
 -0.10913889D-05 -0.00000000D+00  0.00000000D+00  0.00000000D+00  0.10879062D-01
 -0.40443532D-02 -0.13077527D-02  0.21936365D-03 -0.16038222D-02  0.35468949D-02
 -0.81398904D-03 -0.48675964D-03 -0.77557141D-03  0.22226620D-03  0.37581989D-03
 -0.00000000D+00 -0.00000000D+00 -0.12010668D-03  0.00000000D+00  0.00000000D+00