 Molden2AIM, Version 3.1.0 (02/25/2015)           Time: Thu Oct 17 19:55:43 2024
GAUSSIAN             68 MOL ORBITALS     68 PRIMITIVES        2 NUCLEI
  Be   1    (CENTRE  1)   0.00000000  0.00000000  0.00000000  CHARGE =  4.0
  Be   2    (CENTRE  2)  49.80000000  0.00000000  0.00000000  CHARGE =  4.0
CENTRE ASSIGNMENTS    1  1  1  1  1  1  1  1  1  1  1  1  1  1  1  1  1  1  1  1
CENTRE ASSIGNMENTS    1  1  1  1  1  1  1  1  1  1  1  1  1  1  2  2  2  2  2  2
CENTRE ASSIGNMENTS    2  2  2  2  2  2  2  2  2  2  2  2  2  2  2  2  2  2  2  2
CENTRE ASSIGNMENTS    2  2  2  2  2  2  2  2
TYPE ASSIGNMENTS      1  1  1  1  1  1  1  1  1  1  2  3  4  2  3  4  2  3  4  2
TYPE ASSIGNMENTS      3  4  5  6  7  8  9 10  5  6  7  8  9 10  1  1  1  1  1  1
TYPE ASSIGNMENTS      1  1  1  1  2  3  4  2  3  4  2  3  4  2  3  4  5  6  7  8
TYPE ASSIGNMENTS      9 10  5  6  7  8  9 10
EXPONENTS  0.1000000D-03 0.3000000D-03 0.9000000D-03 0.2700000D-02 0.8100000D-02
EXPONENTS  0.2430000D-01 0.7290000D-01 0.2187000D+00 0.6561000D+00 0.1968300D+01
EXPONENTS  0.1000000D-03 0.1000000D-03 0.1000000D-03 0.3000000D-03 0.3000000D-03
EXPONENTS  0.3000000D-03 0.9000000D-03 0.9000000D-03 0.9000000D-03 0.2700000D-02
EXPONENTS  0.2700000D-02 0.2700000D-02 0.1000000D-03 0.1000000D-03 0.1000000D-03
EXPONENTS  0.1000000D-03 0.1000000D-03 0.1000000D-03 0.3000000D-03 0.3000000D-03
EXPONENTS  0.3000000D-03 0.3000000D-03 0.3000000D-03 0.3000000D-03 0.1000000D-03
EXPONENTS  0.3000000D-03 0.9000000D-03 0.2700000D-02 0.8100000D-02 0.2430000D-01
EXPONENTS  0.7290000D-01 0.2187000D+00 0.6561000D+00 0.1968300D+01 0.1000000D-03
EXPONENTS  0.1000000D-03 0.1000000D-03 0.3000000D-03 0.3000000D-03 0.3000000D-03
EXPONENTS  0.9000000D-03 0.9000000D-03 0.9000000D-03 0.2700000D-02 0.2700000D-02
EXPONENTS  0.2700000D-02 0.1000000D-03 0.1000000D-03 0.1000000D-03 0.1000000D-03
EXPONENTS  0.1000000D-03 0.1000000D-03 0.3000000D-03 0.3000000D-03 0.3000000D-03
EXPONENTS  0.3000000D-03 0.3000000D-03 0.3000000D-03
MO    1     MO 0.0        OCC NO =    1.0000000  ORB. ENERGY =    0.000206
 -0.49722859D-04 -0.13694868D-03  0.61510275D-03  0.18574021D-02  0.40888209D-02
  0.76536994D-02  0.10355812D-01 -0.19274505D-01 -0.30771077D-02  0.12099278D-03
  0.49068475D-06  0.00000000D+00 -0.00000000D+00 -0.25490171D-07 -0.00000000D+00
  0.00000000D+00  0.41581340D-05  0.00000000D+00 -0.00000000D+00  0.16402183D-03
 -0.00000000D+00  0.00000000D+00  0.33917695D-08  0.12980751D-08  0.12980751D-08
  0.00000000D+00 -0.00000000D+00  0.00000000D+00  0.44283798D-07  0.32049124D-07
  0.32049124D-07  0.00000000D+00  0.00000000D+00 -0.00000000D+00 -0.49722859D-04
 -0.13694868D-03  0.61510275D-03  0.18574021D-02  0.40888209D-02  0.76536994D-02
  0.10355812D-01 -0.19274505D-01 -0.30771077D-02  0.12099278D-03 -0.49068475D-06
 -0.00000000D+00  0.00000000D+00  0.25490171D-07  0.00000000D+00 -0.00000000D+00
 -0.41581340D-05 -0.00000000D+00  0.00000000D+00 -0.16402183D-03  0.00000000D+00
 -0.00000000D+00  0.33917695D-08  0.12980751D-08  0.12980751D-08  0.00000000D+00
 -0.00000000D+00 -0.00000000D+00  0.44283798D-07  0.32049124D-07  0.32049124D-07
  0.00000000D+00  0.00000000D+00  0.00000000D+00
MO    2     MO 0.0        OCC NO =    0.0000000  ORB. ENERGY =    0.000655
 -0.15325555D-04  0.22949258D-02 -0.28411660D-04  0.27576819D-02  0.41864880D-02
  0.89552486D-02  0.11209150D-01 -0.21235645D-01 -0.35470569D-02  0.18404735D-03
  0.30298449D-06  0.00000000D+00 -0.00000000D+00  0.41514158D-04 -0.00000000D+00
  0.00000000D+00 -0.23103043D-04  0.00000000D+00  0.00000000D+00  0.18648903D-03
 -0.00000000D+00 -0.00000000D+00  0.31299888D-08  0.28048219D-08  0.28048219D-08
  0.00000000D+00 -0.00000000D+00  0.00000000D+00  0.26186565D-06  0.50757366D-07
  0.50757366D-07 -0.00000000D+00  0.00000000D+00 -0.00000000D+00  0.15325555D-04
 -0.22949258D-02  0.28411660D-04 -0.27576819D-02 -0.41864880D-02 -0.89552486D-02
 -0.11209150D-01  0.21235645D-01  0.35470569D-02 -0.18404735D-03  0.30298449D-06
 -0.00000000D+00  0.00000000D+00  0.41514158D-04  0.00000000D+00 -0.00000000D+00
 -0.23103043D-04 -0.00000000D+00 -0.00000000D+00  0.18648903D-03  0.00000000D+00
  0.00000000D+00 -0.31299888D-08 -0.28048219D-08 -0.28048219D-08  0.00000000D+00
 -0.00000000D+00 -0.00000000D+00 -0.26186565D-06 -0.50757366D-07 -0.50757366D-07
 -0.00000000D+00  0.00000000D+00  0.00000000D+00
MO    3     MO 0.0        OCC NO =    0.0000000  ORB. ENERGY =    0.005337
  0.43823836D-03  0.26483177D-03 -0.34548207D-02  0.48473104D-02  0.20199215D-02
  0.66730474D-02  0.59613364D-02 -0.12300423D-01 -0.24698329D-02  0.23781666D-03
 -0.11897203D-04  0.00000000D+00 -0.00000000D+00  0.16197623D-04 -0.00000000D+00
  0.00000000D+00 -0.10807480D-03  0.00000000D+00 -0.00000000D+00  0.75430824D-04
  0.00000000D+00  0.00000000D+00 -0.64291056D-07 -0.48472278D-08 -0.48472278D-08
  0.00000000D+00 -0.00000000D+00  0.00000000D+00 -0.20871347D-07 -0.10815620D-06
 -0.10815620D-06 -0.00000000D+00  0.00000000D+00 -0.00000000D+00  0.43823836D-03
  0.26483177D-03 -0.34548207D-02  0.48473104D-02  0.20199215D-02  0.66730474D-02
  0.59613364D-02 -0.12300423D-01 -0.24698329D-02  0.23781666D-03  0.11897203D-04
 -0.00000000D+00  0.00000000D+00 -0.16197623D-04  0.00000000D+00 -0.00000000D+00
  0.10807480D-03  0.00000000D+00  0.00000000D+00 -0.75430824D-04 -0.00000000D+00
 -0.00000000D+00 -0.64291056D-07 -0.48472278D-08 -0.48472278D-08  0.00000000D+00
 -0.00000000D+00 -0.00000000D+00 -0.20871347D-07 -0.10815620D-06 -0.10815620D-06
 -0.00000000D+00  0.00000000D+00  0.00000000D+00
MO    4     MO 0.0        OCC NO =    0.0000000  ORB. ENERGY =    0.011478
  0.14311967D-04 -0.72455121D-02  0.36421665D-02  0.27246408D-02 -0.11507595D-01
 -0.30940699D-02 -0.97537189D-02  0.15784240D-01  0.16540837D-02  0.19592634D-03
  0.13635916D-05 -0.00000000D+00  0.00000000D+00 -0.11928484D-03  0.00000000D+00
 -0.00000000D+00  0.67429859D-04  0.00000000D+00  0.00000000D+00  0.40039071D-03
  0.00000000D+00 -0.00000000D+00  0.13884894D-07  0.10797313D-07  0.10797313D-07
 -0.00000000D+00  0.00000000D+00  0.00000000D+00 -0.46960427D-06  0.13850612D-06
  0.13850612D-06  0.00000000D+00 -0.00000000D+00 -0.00000000D+00 -0.14311967D-04
  0.72455121D-02 -0.36421665D-02 -0.27246408D-02  0.11507595D-01  0.30940699D-02
  0.97537189D-02 -0.15784240D-01 -0.16540837D-02 -0.19592634D-03  0.13635916D-05
  0.00000000D+00 -0.00000000D+00 -0.11928484D-03 -0.00000000D+00  0.00000000D+00
  0.67429859D-04  0.00000000D+00 -0.00000000D+00  0.40039071D-03  0.00000000D+00
 -0.00000000D+00 -0.13884894D-07 -0.10797313D-07 -0.10797313D-07 -0.00000000D+00
  0.00000000D+00 -0.00000000D+00  0.46960427D-06 -0.13850612D-06 -0.13850612D-06
  0.00000000D+00 -0.00000000D+00  0.00000000D+00
MO    5     MO 0.0        OCC NO =    0.0000000  ORB. ENERGY =    0.011931
 -0.00000000D+00  0.00000000D+00  0.00000000D+00  0.00000000D+00 -0.00000000D+00
  0.00000000D+00 -0.00000000D+00  0.00000000D+00 -0.00000000D+00 -0.00000000D+00
  0.00000000D+00  0.17549574D-06  0.65140353D-06  0.00000000D+00 -0.18542491D-05
 -0.68825836D-05 -0.00000000D+00  0.24750122D-04  0.91867272D-04  0.00000000D+00
  0.73097206D-04  0.27132152D-03  0.00000000D+00  0.00000000D+00  0.00000000D+00
 -0.34689998D-08 -0.12876202D-07 -0.00000000D+00  0.00000000D+00  0.00000000D+00
  0.00000000D+00  0.42082919D-07  0.15620300D-06 -0.00000000D+00 -0.00000000D+00
 -0.00000000D+00 -0.00000000D+00 -0.00000000D+00  0.00000000D+00  0.00000000D+00
  0.00000000D+00 -0.00000000D+00  0.00000000D+00 -0.00000000D+00 -0.00000000D+00
  0.17549574D-06  0.65140353D-06  0.00000000D+00 -0.18542491D-05 -0.68825836D-05
 -0.00000000D+00  0.24750122D-04  0.91867272D-04  0.00000000D+00  0.73097206D-04
  0.27132152D-03  0.00000000D+00 -0.00000000D+00 -0.00000000D+00  0.34689998D-08
  0.12876202D-07 -0.00000000D+00 -0.00000000D+00 -0.00000000D+00 -0.00000000D+00
 -0.42082919D-07 -0.15620300D-06  0.00000000D+00
MO    6     MO 0.0        OCC NO =    0.0000000  ORB. ENERGY =    0.011931
  0.00000000D+00 -0.00000000D+00  0.00000000D+00  0.00000000D+00 -0.00000000D+00
 -0.00000000D+00 -0.00000000D+00  0.00000000D+00 -0.00000000D+00  0.00000000D+00
 -0.00000000D+00 -0.65140353D-06  0.17549574D-06 -0.00000000D+00  0.68825836D-05
 -0.18542491D-05  0.00000000D+00 -0.91867272D-04  0.24750122D-04  0.00000000D+00
 -0.27132152D-03  0.73097206D-04 -0.00000000D+00 -0.00000000D+00 -0.00000000D+00
  0.12876202D-07 -0.34689998D-08 -0.00000000D+00 -0.00000000D+00 -0.00000000D+00
 -0.00000000D+00 -0.15620300D-06  0.42082919D-07 -0.00000000D+00  0.00000000D+00
  0.00000000D+00 -0.00000000D+00 -0.00000000D+00  0.00000000D+00  0.00000000D+00
  0.00000000D+00 -0.00000000D+00  0.00000000D+00 -0.00000000D+00  0.00000000D+00
 -0.65140353D-06  0.17549574D-06 -0.00000000D+00  0.68825836D-05 -0.18542491D-05
  0.00000000D+00 -0.91867272D-04  0.24750122D-04  0.00000000D+00 -0.27132152D-03
  0.73097206D-04 -0.00000000D+00  0.00000000D+00  0.00000000D+00 -0.12876202D-07
  0.34689998D-08  0.00000000D+00  0.00000000D+00  0.00000000D+00  0.00000000D+00
  0.15620300D-06 -0.42082919D-07  0.00000000D+00
MO    7     MO 0.0        OCC NO =    0.0000000  ORB. ENERGY =    0.012764
 -0.25520529D-04 -0.51499764D-03 -0.13777091D-02  0.11598273D-01 -0.15991590D-01
  0.16606767D-02 -0.10253257D-01  0.13955972D-01  0.28757253D-03  0.55615699D-03
 -0.11118635D-04 -0.00000000D+00  0.00000000D+00  0.11035969D-04  0.00000000D+00
 -0.00000000D+00 -0.14300437D-03 -0.00000000D+00  0.00000000D+00  0.72090934D-03
  0.00000000D+00 -0.00000000D+00 -0.45320875D-07  0.10065391D-07  0.10065391D-07
 -0.00000000D+00  0.00000000D+00  0.00000000D+00  0.23181674D-06  0.22390875D-06
  0.22390875D-06  0.00000000D+00 -0.00000000D+00 -0.00000000D+00 -0.25520529D-04
 -0.51499764D-03 -0.13777091D-02  0.11598273D-01 -0.15991590D-01  0.16606767D-02
 -0.10253257D-01  0.13955972D-01  0.28757253D-03  0.55615699D-03  0.11118635D-04
  0.00000000D+00 -0.00000000D+00 -0.11035969D-04 -0.00000000D+00  0.00000000D+00
  0.14300437D-03  0.00000000D+00 -0.00000000D+00 -0.72090934D-03 -0.00000000D+00
  0.00000000D+00 -0.45320875D-07  0.10065391D-07  0.10065391D-07 -0.00000000D+00
  0.00000000D+00 -0.00000000D+00  0.23181674D-06  0.22390875D-06  0.22390875D-06
  0.00000000D+00 -0.00000000D+00 -0.00000000D+00
MO    8     MO 0.0        OCC NO =    0.0000000  ORB. ENERGY =    0.014162
 -0.00000000D+00  0.00000000D+00 -0.00000000D+00  0.00000000D+00 -0.00000000D+00
  0.00000000D+00 -0.00000000D+00  0.00000000D+00 -0.00000000D+00 -0.00000000D+00
  0.00000000D+00 -0.42834682D-06 -0.93130778D-06  0.00000000D+00  0.18958974D-05
  0.41220431D-05 -0.00000000D+00  0.33383264D-07  0.72581491D-07  0.00000000D+00
  0.26338241D-03  0.57264362D-03  0.00000000D+00  0.00000000D+00  0.00000000D+00
 -0.27611094D-08 -0.60031780D-08  0.00000000D+00  0.00000000D+00  0.00000000D+00
  0.00000000D+00  0.36958045D-07  0.80353863D-07 -0.00000000D+00  0.00000000D+00
 -0.00000000D+00  0.00000000D+00 -0.00000000D+00  0.00000000D+00 -0.00000000D+00
  0.00000000D+00 -0.00000000D+00  0.00000000D+00 -0.00000000D+00 -0.00000000D+00
  0.42834682D-06  0.93130778D-06  0.00000000D+00 -0.18958974D-05 -0.41220431D-05
 -0.00000000D+00 -0.33383264D-07 -0.72581491D-07  0.00000000D+00 -0.26338241D-03
 -0.57264362D-03  0.00000000D+00 -0.00000000D+00 -0.00000000D+00 -0.27611094D-08
 -0.60031780D-08 -0.00000000D+00 -0.00000000D+00 -0.00000000D+00 -0.00000000D+00
  0.36958045D-07  0.80353863D-07  0.00000000D+00
MO    9     MO 0.0        OCC NO =    0.0000000  ORB. ENERGY =    0.014162
 -0.00000000D+00 -0.00000000D+00  0.00000000D+00 -0.00000000D+00  0.00000000D+00
  0.00000000D+00  0.00000000D+00 -0.00000000D+00  0.00000000D+00  0.00000000D+00
  0.00000000D+00 -0.93130778D-06  0.42834682D-06 -0.00000000D+00  0.41220431D-05
 -0.18958974D-05  0.00000000D+00  0.72581491D-07 -0.33383264D-07 -0.00000000D+00
  0.57264362D-03 -0.26338241D-03  0.00000000D+00 -0.00000000D+00 -0.00000000D+00
 -0.60031780D-08  0.27611094D-08  0.00000000D+00 -0.00000000D+00 -0.00000000D+00
 -0.00000000D+00  0.80353863D-07 -0.36958045D-07 -0.00000000D+00 -0.00000000D+00
  0.00000000D+00 -0.00000000D+00  0.00000000D+00 -0.00000000D+00 -0.00000000D+00
  0.00000000D+00 -0.00000000D+00  0.00000000D+00 -0.00000000D+00 -0.00000000D+00
  0.93130778D-06 -0.42834682D-06 -0.00000000D+00 -0.41220431D-05  0.18958974D-05
  0.00000000D+00 -0.72581491D-07  0.33383264D-07 -0.00000000D+00 -0.57264362D-03
  0.26338241D-03  0.00000000D+00  0.00000000D+00  0.00000000D+00 -0.60031780D-08
  0.27611094D-08 -0.00000000D+00  0.00000000D+00  0.00000000D+00  0.00000000D+00
  0.80353863D-07 -0.36958045D-07 -0.00000000D+00
MO   10     MO 0.0        OCC NO =    0.0000000  ORB. ENERGY =    0.018028
  0.12476737D-03 -0.27446953D-01  0.10110633D-01 -0.13736444D-01  0.10655432D-01
 -0.23164885D-02  0.49202095D-02 -0.59294786D-02  0.25406596D-03 -0.35936608D-03
  0.41747963D-06 -0.00000000D+00  0.00000000D+00 -0.47652908D-03  0.00000000D+00
 -0.00000000D+00  0.36516331D-03 -0.00000000D+00  0.00000000D+00 -0.61400523D-03
  0.00000000D+00  0.00000000D+00  0.15792860D-08  0.16398971D-08  0.16398971D-08
 -0.00000000D+00  0.00000000D+00 -0.00000000D+00 -0.24920576D-05 -0.10868463D-06
 -0.10868463D-06  0.00000000D+00 -0.00000000D+00  0.00000000D+00 -0.12476737D-03
  0.27446953D-01 -0.10110633D-01  0.13736444D-01 -0.10655432D-01  0.23164885D-02
 -0.49202095D-02  0.59294786D-02 -0.25406596D-03  0.35936608D-03  0.41747963D-06
  0.00000000D+00 -0.00000000D+00 -0.47652908D-03 -0.00000000D+00  0.00000000D+00
  0.36516331D-03  0.00000000D+00 -0.00000000D+00 -0.61400523D-03  0.00000000D+00
  0.00000000D+00 -0.15792860D-08 -0.16398971D-08 -0.16398971D-08 -0.00000000D+00
  0.00000000D+00  0.00000000D+00  0.24920576D-05  0.10868463D-06  0.10868463D-06
  0.00000000D+00 -0.00000000D+00 -0.00000000D+00
MO   11     MO 0.0        OCC NO =    0.0000000  ORB. ENERGY =    0.018391
  0.00000000D+00  0.00000000D+00 -0.00000000D+00  0.00000000D+00 -0.00000000D+00
  0.00000000D+00 -0.00000000D+00  0.00000000D+00 -0.00000000D+00  0.00000000D+00
 -0.00000000D+00 -0.95163670D-06 -0.53839125D-06  0.00000000D+00  0.10803387D-04
  0.61120486D-05 -0.00000000D+00 -0.18051056D-03 -0.10212439D-03  0.00000000D+00
  0.74534727D-03  0.42168244D-03 -0.00000000D+00 -0.00000000D+00 -0.00000000D+00
  0.15997036D-07  0.90503702D-08 -0.00000000D+00  0.00000000D+00  0.00000000D+00
  0.00000000D+00 -0.20562951D-06 -0.11633552D-06  0.00000000D+00  0.00000000D+00
 -0.00000000D+00  0.00000000D+00 -0.00000000D+00  0.00000000D+00 -0.00000000D+00
  0.00000000D+00 -0.00000000D+00  0.00000000D+00 -0.00000000D+00  0.00000000D+00
 -0.95163670D-06 -0.53839125D-06  0.00000000D+00  0.10803387D-04  0.61120486D-05
 -0.00000000D+00 -0.18051056D-03 -0.10212439D-03  0.00000000D+00  0.74534727D-03
  0.42168244D-03 -0.00000000D+00  0.00000000D+00 -0.00000000D+00 -0.15997036D-07
 -0.90503702D-08  0.00000000D+00 -0.00000000D+00 -0.00000000D+00 -0.00000000D+00
  0.20562951D-06  0.11633552D-06 -0.00000000D+00
MO   12     MO 0.0        OCC NO =    0.0000000  ORB. ENERGY =    0.018391
 -0.00000000D+00  0.00000000D+00 -0.00000000D+00  0.00000000D+00 -0.00000000D+00
 -0.00000000D+00  0.00000000D+00 -0.00000000D+00  0.00000000D+00 -0.00000000D+00
  0.00000000D+00  0.53839125D-06 -0.95163670D-06  0.00000000D+00 -0.61120486D-05
  0.10803387D-04 -0.00000000D+00  0.10212439D-03 -0.18051056D-03  0.00000000D+00
 -0.42168244D-03  0.74534727D-03  0.00000000D+00 -0.00000000D+00 -0.00000000D+00
 -0.90503702D-08  0.15997036D-07  0.00000000D+00  0.00000000D+00  0.00000000D+00
  0.00000000D+00  0.11633552D-06 -0.20562951D-06  0.00000000D+00 -0.00000000D+00
 -0.00000000D+00  0.00000000D+00 -0.00000000D+00  0.00000000D+00 -0.00000000D+00
  0.00000000D+00 -0.00000000D+00 -0.00000000D+00 -0.00000000D+00 -0.00000000D+00
  0.53839125D-06 -0.95163670D-06  0.00000000D+00 -0.61120486D-05  0.10803387D-04
 -0.00000000D+00  0.10212439D-03 -0.18051056D-03  0.00000000D+00 -0.42168244D-03
  0.74534727D-03  0.00000000D+00  0.00000000D+00  0.00000000D+00  0.90503702D-08
 -0.15997036D-07  0.00000000D+00 -0.00000000D+00  0.00000000D+00  0.00000000D+00
 -0.11633552D-06  0.20562951D-06 -0.00000000D+00
MO   13     MO 0.0        OCC NO =    0.0000000  ORB. ENERGY =    0.021959
  0.23788163D-03  0.74834236D-04 -0.59042897D-03  0.86474352D-02 -0.12836818D-01
 -0.99812286D-03 -0.69943251D-02  0.10609771D-01  0.84574869D-03  0.22484807D-03
 -0.62187943D-05  0.00000000D+00 -0.00000000D+00  0.63455313D-05 -0.00000000D+00
  0.00000000D+00 -0.40269578D-04  0.00000000D+00 -0.00000000D+00 -0.27546699D-03
 -0.00000000D+00  0.00000000D+00 -0.33862519D-07 -0.30409263D-08 -0.30409263D-08
  0.00000000D+00 -0.00000000D+00 -0.00000000D+00 -0.32960665D-07 -0.48655785D-07
 -0.48655785D-07 -0.00000000D+00  0.00000000D+00  0.00000000D+00  0.23788163D-03
  0.74834236D-04 -0.59042897D-03  0.86474352D-02 -0.12836818D-01 -0.99812286D-03
 -0.69943251D-02  0.10609771D-01  0.84574869D-03  0.22484807D-03  0.62187943D-05
 -0.00000000D+00  0.00000000D+00 -0.63455313D-05  0.00000000D+00 -0.00000000D+00
  0.40269578D-04 -0.00000000D+00  0.00000000D+00  0.27546699D-03  0.00000000D+00
 -0.00000000D+00 -0.33862519D-07 -0.30409263D-08 -0.30409263D-08  0.00000000D+00
 -0.00000000D+00  0.00000000D+00 -0.32960665D-07 -0.48655785D-07 -0.48655785D-07
 -0.00000000D+00  0.00000000D+00 -0.00000000D+00
MO   14     MO 0.0        OCC NO =    0.0000000  ORB. ENERGY =    0.023884
 -0.32774345D-04  0.83765825D-02 -0.59958494D-02  0.14957163D-01 -0.16194077D-01
 -0.39107058D-03 -0.78534716D-02  0.11539597D-01  0.75808814D-03  0.29800512D-03
 -0.53956907D-06  0.00000000D+00 -0.00000000D+00  0.14545102D-03 -0.00000000D+00
  0.00000000D+00 -0.18719689D-03  0.00000000D+00 -0.00000000D+00 -0.27910069D-03
 -0.00000000D+00  0.00000000D+00 -0.30149964D-08 -0.52488445D-08 -0.52488445D-08
  0.00000000D+00 -0.00000000D+00  0.00000000D+00  0.70421898D-06  0.12146947D-07
  0.12146947D-07 -0.00000000D+00  0.00000000D+00 -0.00000000D+00  0.32774345D-04
 -0.83765825D-02  0.59958494D-02 -0.14957163D-01  0.16194077D-01  0.39107058D-03
  0.78534716D-02 -0.11539597D-01 -0.75808814D-03 -0.29800512D-03 -0.53956907D-06
 -0.00000000D+00  0.00000000D+00  0.14545102D-03  0.00000000D+00 -0.00000000D+00
 -0.18719689D-03 -0.00000000D+00  0.00000000D+00 -0.27910069D-03  0.00000000D+00
 -0.00000000D+00  0.30149964D-08  0.52488445D-08  0.52488445D-08  0.00000000D+00
 -0.00000000D+00 -0.00000000D+00 -0.70421898D-06 -0.12146947D-07 -0.12146947D-07
 -0.00000000D+00  0.00000000D+00  0.00000000D+00
MO   15     MO 0.0        OCC NO =    0.0000000  ORB. ENERGY =    0.024643
 -0.00000000D+00 -0.00000000D+00 -0.00000000D+00  0.00000000D+00 -0.00000000D+00
  0.00000000D+00 -0.00000000D+00  0.00000000D+00 -0.00000000D+00  0.00000000D+00
 -0.00000000D+00 -0.39560261D-04 -0.11258840D-04 -0.00000000D+00  0.39868984D-04
  0.11346703D-04  0.00000000D+00 -0.32246262D-03 -0.91772780D-04 -0.00000000D+00
  0.68497374D-03  0.19494335D-03  0.00000000D+00 -0.00000000D+00 -0.00000000D+00
 -0.18756275D-06 -0.53380311D-07  0.00000000D+00 -0.00000000D+00 -0.00000000D+00
 -0.00000000D+00  0.15241992D-06  0.43378662D-07  0.00000000D+00 -0.00000000D+00
  0.00000000D+00  0.00000000D+00 -0.00000000D+00  0.00000000D+00  0.00000000D+00
  0.00000000D+00 -0.00000000D+00 -0.00000000D+00  0.00000000D+00 -0.00000000D+00
  0.39560261D-04  0.11258840D-04 -0.00000000D+00 -0.39868984D-04 -0.11346703D-04
  0.00000000D+00  0.32246262D-03  0.91772780D-04 -0.00000000D+00 -0.68497374D-03
 -0.19494335D-03  0.00000000D+00  0.00000000D+00  0.00000000D+00 -0.18756275D-06
 -0.53380311D-07  0.00000000D+00  0.00000000D+00  0.00000000D+00  0.00000000D+00
  0.15241992D-06  0.43378662D-07 -0.00000000D+00
MO   16     MO 0.0        OCC NO =    0.0000000  ORB. ENERGY =    0.024643
  0.00000000D+00 -0.00000000D+00  0.00000000D+00  0.00000000D+00 -0.00000000D+00
 -0.00000000D+00 -0.00000000D+00  0.00000000D+00  0.00000000D+00 -0.00000000D+00
  0.00000000D+00 -0.11258840D-04  0.39560261D-04 -0.00000000D+00  0.11346703D-04
 -0.39868984D-04  0.00000000D+00 -0.91772780D-04  0.32246262D-03 -0.00000000D+00
  0.19494335D-03 -0.68497374D-03  0.00000000D+00 -0.00000000D+00 -0.00000000D+00
 -0.53380311D-07  0.18756275D-06 -0.00000000D+00 -0.00000000D+00 -0.00000000D+00
 -0.00000000D+00  0.43378662D-07 -0.15241992D-06 -0.00000000D+00 -0.00000000D+00
  0.00000000D+00  0.00000000D+00 -0.00000000D+00  0.00000000D+00  0.00000000D+00
  0.00000000D+00 -0.00000000D+00 -0.00000000D+00  0.00000000D+00 -0.00000000D+00
  0.11258840D-04 -0.39560261D-04 -0.00000000D+00 -0.11346703D-04  0.39868984D-04
  0.00000000D+00  0.91772780D-04 -0.32246262D-03 -0.00000000D+00 -0.19494335D-03
  0.68497374D-03  0.00000000D+00  0.00000000D+00  0.00000000D+00 -0.53380311D-07
  0.18756275D-06  0.00000000D+00  0.00000000D+00  0.00000000D+00  0.00000000D+00
  0.43378662D-07 -0.15241992D-06  0.00000000D+00
MO   17     MO 0.0        OCC NO =    0.0000000  ORB. ENERGY =    0.030735
  0.19881241D-02  0.32407072D-03 -0.13555253D-02 -0.37682320D-02  0.49610646D-02
 -0.53700042D-03  0.22416715D-02 -0.29196074D-02 -0.13648901D-04 -0.13400874D-03
 -0.44657314D-04  0.00000000D+00  0.00000000D+00  0.63916921D-04 -0.00000000D+00
 -0.00000000D+00 -0.26347055D-03 -0.00000000D+00  0.00000000D+00  0.67716641D-03
  0.00000000D+00 -0.00000000D+00 -0.26094132D-06 -0.30195428D-07 -0.30195428D-07
  0.00000000D+00  0.00000000D+00 -0.00000000D+00 -0.67122897D-08 -0.53735171D-06
 -0.53735171D-06 -0.00000000D+00 -0.00000000D+00  0.00000000D+00  0.19881241D-02
  0.32407072D-03 -0.13555253D-02 -0.37682320D-02  0.49610646D-02 -0.53700042D-03
  0.22416715D-02 -0.29196074D-02 -0.13648901D-04 -0.13400874D-03  0.44657314D-04
 -0.00000000D+00 -0.00000000D+00 -0.63916921D-04  0.00000000D+00  0.00000000D+00
  0.26347055D-03  0.00000000D+00 -0.00000000D+00 -0.67716641D-03 -0.00000000D+00
  0.00000000D+00 -0.26094132D-06 -0.30195428D-07 -0.30195428D-07  0.00000000D+00
  0.00000000D+00  0.00000000D+00 -0.67122897D-08 -0.53735171D-06 -0.53735171D-06
 -0.00000000D+00 -0.00000000D+00 -0.00000000D+00
MO   18     MO 0.0        OCC NO =    0.0000000  ORB. ENERGY =    0.031039
 -0.34689037D-02 -0.41608758D-02  0.18409179D-01 -0.20464523D-01  0.13373014D-01
  0.30993635D-02  0.44792265D-02 -0.80646348D-02 -0.12572108D-02  0.22111738D-04
  0.35859518D-04 -0.00000000D+00 -0.00000000D+00 -0.72054065D-04  0.00000000D+00
 -0.00000000D+00  0.41353992D-04 -0.00000000D+00 -0.00000000D+00 -0.10286639D-03
  0.00000000D+00  0.00000000D+00  0.27730292D-06  0.88107830D-07  0.88107830D-07
 -0.00000000D+00 -0.00000000D+00 -0.00000000D+00  0.10488364D-05  0.18683720D-05
  0.18683720D-05  0.00000000D+00 -0.00000000D+00  0.00000000D+00 -0.34689037D-02
 -0.41608758D-02  0.18409179D-01 -0.20464523D-01  0.13373014D-01  0.30993635D-02
  0.44792265D-02 -0.80646348D-02 -0.12572108D-02  0.22111738D-04 -0.35859518D-04
  0.00000000D+00  0.00000000D+00  0.72054065D-04 -0.00000000D+00  0.00000000D+00
 -0.41353992D-04  0.00000000D+00 -0.00000000D+00  0.10286639D-03 -0.00000000D+00
 -0.00000000D+00  0.27730292D-06  0.88107830D-07  0.88107830D-07 -0.00000000D+00
 -0.00000000D+00  0.00000000D+00  0.10488364D-05  0.18683720D-05  0.18683720D-05
  0.00000000D+00 -0.00000000D+00 -0.00000000D+00
MO   19     MO 0.0        OCC NO =    0.0000000  ORB. ENERGY =    0.031931
  0.16316232D-03 -0.26382911D-01 -0.12551947D-02  0.70081318D-02 -0.68313470D-02
  0.30280435D-03 -0.27201358D-02  0.37336777D-02  0.12412343D-03  0.13726569D-03
 -0.25608528D-05 -0.00000000D+00  0.00000000D+00 -0.48646127D-03  0.00000000D+00
 -0.00000000D+00  0.44416690D-03  0.00000000D+00  0.00000000D+00 -0.58085028D-03
 -0.00000000D+00 -0.00000000D+00 -0.29602761D-07 -0.22521830D-07 -0.22521830D-07
 -0.00000000D+00  0.00000000D+00 -0.00000000D+00 -0.29911107D-05 -0.57036103D-06
 -0.57036103D-06  0.00000000D+00 -0.00000000D+00  0.00000000D+00 -0.16316232D-03
  0.26382911D-01  0.12551947D-02 -0.70081318D-02  0.68313470D-02 -0.30280435D-03
  0.27201358D-02 -0.37336777D-02 -0.12412343D-03 -0.13726569D-03 -0.25608528D-05
  0.00000000D+00 -0.00000000D+00 -0.48646127D-03 -0.00000000D+00  0.00000000D+00
  0.44416690D-03  0.00000000D+00 -0.00000000D+00 -0.58085028D-03  0.00000000D+00
  0.00000000D+00  0.29602761D-07  0.22521830D-07  0.22521830D-07 -0.00000000D+00
  0.00000000D+00  0.00000000D+00  0.29911107D-05  0.57036103D-06  0.57036103D-06
  0.00000000D+00 -0.00000000D+00  0.00000000D+00
MO   20     MO 0.0        OCC NO =    0.0000000  ORB. ENERGY =    0.039403
  0.62711167D-03  0.16554720D-01 -0.16652927D-01  0.11948258D-01 -0.39371408D-02
 -0.58461853D-02 -0.42391979D-03  0.34800104D-02  0.15525924D-02 -0.32939028D-03
 -0.47067311D-04  0.00000000D+00 -0.00000000D+00  0.27306590D-03 -0.00000000D+00
  0.00000000D+00  0.92423904D-04  0.00000000D+00 -0.00000000D+00 -0.10585333D-03
 -0.00000000D+00  0.00000000D+00 -0.62597410D-06 -0.55386516D-06 -0.55386516D-06
  0.00000000D+00 -0.00000000D+00 -0.00000000D+00 -0.24830191D-05 -0.38367737D-05
 -0.38367737D-05 -0.00000000D+00  0.00000000D+00  0.00000000D+00 -0.62711167D-03
 -0.16554720D-01  0.16652927D-01 -0.11948258D-01  0.39371408D-02  0.58461853D-02
  0.42391979D-03 -0.34800104D-02 -0.15525924D-02  0.32939028D-03 -0.47067311D-04
 -0.00000000D+00  0.00000000D+00  0.27306590D-03  0.00000000D+00 -0.00000000D+00
  0.92423904D-04 -0.00000000D+00  0.00000000D+00 -0.10585333D-03  0.00000000D+00
 -0.00000000D+00  0.62597410D-06  0.55386516D-06  0.55386516D-06  0.00000000D+00
 -0.00000000D+00  0.00000000D+00  0.24830191D-05  0.38367737D-05  0.38367737D-05
 -0.00000000D+00  0.00000000D+00 -0.00000000D+00
MO   21     MO 0.0        OCC NO =    0.0000000  ORB. ENERGY =    0.041931
  0.00000000D+00  0.00000000D+00 -0.00000000D+00  0.00000000D+00 -0.00000000D+00
 -0.00000000D+00  0.00000000D+00  0.00000000D+00  0.00000000D+00 -0.00000000D+00
  0.00000000D+00 -0.00000000D+00 -0.00000000D+00  0.00000000D+00  0.00000000D+00
  0.00000000D+00 -0.00000000D+00 -0.00000000D+00  0.00000000D+00 -0.00000000D+00
  0.00000000D+00 -0.00000000D+00  0.00000000D+00 -0.11818366D-07  0.11818366D-07
 -0.00000000D+00 -0.00000000D+00  0.10107999D-06  0.00000000D+00  0.15342410D-06
 -0.15342410D-06  0.00000000D+00 -0.00000000D+00 -0.13122039D-05  0.00000000D+00
 -0.00000000D+00  0.00000000D+00 -0.00000000D+00  0.00000000D+00  0.00000000D+00
 -0.00000000D+00 -0.00000000D+00 -0.00000000D+00  0.00000000D+00  0.00000000D+00
  0.00000000D+00  0.00000000D+00  0.00000000D+00 -0.00000000D+00 -0.00000000D+00
 -0.00000000D+00  0.00000000D+00  0.00000000D+00 -0.00000000D+00 -0.00000000D+00
 -0.00000000D+00 -0.00000000D+00 -0.11818366D-07  0.11818366D-07 -0.00000000D+00
 -0.00000000D+00  0.10107999D-06 -0.00000000D+00  0.15342410D-06 -0.15342410D-06
  0.00000000D+00  0.00000000D+00 -0.13122039D-05
MO   22     MO 0.0        OCC NO =    0.0000000  ORB. ENERGY =    0.041931
  0.00000000D+00  0.00000000D+00 -0.00000000D+00  0.00000000D+00  0.00000000D+00
 -0.00000000D+00  0.00000000D+00  0.00000000D+00  0.00000000D+00 -0.00000000D+00
 -0.00000000D+00 -0.00000000D+00  0.00000000D+00  0.00000000D+00  0.00000000D+00
 -0.00000000D+00 -0.00000000D+00 -0.00000000D+00  0.00000000D+00 -0.00000000D+00
  0.00000000D+00 -0.00000000D+00 -0.00000000D+00 -0.50539995D-07  0.50539995D-07
 -0.00000000D+00  0.00000000D+00 -0.23636732D-07  0.00000000D+00  0.65610197D-06
 -0.65610197D-06  0.00000000D+00 -0.00000000D+00  0.30684819D-06  0.00000000D+00
 -0.00000000D+00  0.00000000D+00 -0.00000000D+00 -0.00000000D+00  0.00000000D+00
 -0.00000000D+00 -0.00000000D+00 -0.00000000D+00  0.00000000D+00  0.00000000D+00
  0.00000000D+00 -0.00000000D+00  0.00000000D+00 -0.00000000D+00  0.00000000D+00
  0.00000000D+00 -0.00000000D+00 -0.00000000D+00 -0.00000000D+00  0.00000000D+00
  0.00000000D+00 -0.00000000D+00 -0.50539995D-07  0.50539995D-07 -0.00000000D+00
  0.00000000D+00 -0.23636732D-07 -0.00000000D+00  0.65610197D-06 -0.65610197D-06
  0.00000000D+00 -0.00000000D+00  0.30684819D-06
MO   23     MO 0.0        OCC NO =    0.0000000  ORB. ENERGY =    0.042652
 -0.56617403D-03  0.76405469D-01 -0.11212150D-01  0.90864565D-02 -0.37635303D-03
 -0.10188339D-01  0.11598408D-02  0.32523199D-02  0.24696094D-02 -0.63039179D-03
  0.13368779D-04  0.00000000D+00 -0.00000000D+00  0.11505684D-02 -0.00000000D+00
  0.00000000D+00  0.45248370D-04  0.00000000D+00 -0.00000000D+00 -0.96160658D-04
 -0.00000000D+00  0.00000000D+00  0.26164359D-06  0.31334704D-06  0.31334704D-06
  0.00000000D+00 -0.00000000D+00 -0.00000000D+00  0.59351107D-05 -0.41691259D-06
 -0.41691259D-06 -0.00000000D+00  0.00000000D+00  0.00000000D+00  0.56617403D-03
 -0.76405469D-01  0.11212150D-01 -0.90864565D-02  0.37635303D-03  0.10188339D-01
 -0.11598408D-02 -0.32523199D-02 -0.24696094D-02  0.63039179D-03  0.13368779D-04
 -0.00000000D+00  0.00000000D+00  0.11505684D-02  0.00000000D+00 -0.00000000D+00
  0.45248370D-04 -0.00000000D+00  0.00000000D+00 -0.96160658D-04  0.00000000D+00
 -0.00000000D+00 -0.26164359D-06 -0.31334704D-06 -0.31334704D-06  0.00000000D+00
 -0.00000000D+00 -0.00000000D+00 -0.59351107D-05  0.41691259D-06  0.41691259D-06
 -0.00000000D+00  0.00000000D+00  0.00000000D+00
MO   24     MO 0.0        OCC NO =    0.0000000  ORB. ENERGY =    0.042845
 -0.77409475D-02  0.33085826D-02  0.17474235D-02  0.27420334D-03  0.40800938D-03
 -0.17814374D-02  0.32494588D-03  0.39666218D-03  0.42431093D-03 -0.11607774D-03
  0.13005444D-03 -0.00000000D+00 -0.00000000D+00 -0.47495794D-04  0.00000000D+00
  0.00000000D+00  0.46032682D-04 -0.00000000D+00 -0.00000000D+00 -0.37818481D-04
  0.00000000D+00  0.00000000D+00  0.92363131D-06  0.19033520D-06  0.19033520D-06
 -0.00000000D+00 -0.00000000D+00  0.00000000D+00  0.81142666D-06  0.14050723D-05
  0.14050723D-05  0.00000000D+00  0.00000000D+00 -0.00000000D+00 -0.77409475D-02
  0.33085826D-02  0.17474235D-02  0.27420334D-03  0.40800938D-03 -0.17814374D-02
  0.32494588D-03  0.39666218D-03  0.42431093D-03 -0.11607774D-03 -0.13005444D-03
  0.00000000D+00  0.00000000D+00  0.47495794D-04 -0.00000000D+00 -0.00000000D+00