[Molden Format]
[Atoms] AU
E+       1       4     0.00000000     0.00000000     0.00000000
E+       2       4    58.80000000     0.00000000     0.00000000
[GTO]
  1 0
s  1 1.00
   1.0000000000E-04   1.0000000000E+00
s  1 1.00
   3.0000000000E-04   1.0000000000E+00
s  1 1.00
   9.0000000000E-04   1.0000000000E+00
s  1 1.00
   2.7000000000E-03   1.0000000000E+00
s  1 1.00
   8.1000000000E-03   1.0000000000E+00
s  1 1.00
   2.4300000000E-02   1.0000000000E+00
s  1 1.00
   7.2900000000E-02   1.0000000000E+00
s  1 1.00
   2.1870000000E-01   1.0000000000E+00
s  1 1.00
   6.5610000000E-01   1.0000000000E+00
s  1 1.00
   1.9683000000E+00   1.0000000000E+00
p  1 1.00
   1.0000000000E-04   1.0000000000E+00
p  1 1.00
   3.0000000000E-04   1.0000000000E+00
p  1 1.00
   9.0000000000E-04   1.0000000000E+00
p  1 1.00
   2.7000000000E-03   1.0000000000E+00
d  1 1.00
   1.0000000000E-04   1.0000000000E+00
d  1 1.00
   3.0000000000E-04   1.0000000000E+00
 
  2 0
s  1 1.00
   1.0000000000E-04   1.0000000000E+00
s  1 1.00
   3.0000000000E-04   1.0000000000E+00
s  1 1.00
   9.0000000000E-04   1.0000000000E+00
s  1 1.00
   2.7000000000E-03   1.0000000000E+00
s  1 1.00
   8.1000000000E-03   1.0000000000E+00
s  1 1.00
   2.4300000000E-02   1.0000000000E+00
s  1 1.00
   7.2900000000E-02   1.0000000000E+00
s  1 1.00
   2.1870000000E-01   1.0000000000E+00
s  1 1.00
   6.5610000000E-01   1.0000000000E+00
s  1 1.00
   1.9683000000E+00   1.0000000000E+00
p  1 1.00
   1.0000000000E-04   1.0000000000E+00
p  1 1.00
   3.0000000000E-04   1.0000000000E+00
p  1 1.00
   9.0000000000E-04   1.0000000000E+00
p  1 1.00
   2.7000000000E-03   1.0000000000E+00
d  1 1.00
   1.0000000000E-04   1.0000000000E+00
d  1 1.00
   3.0000000000E-04   1.0000000000E+00
 
 
[MO]
Ene=     4.82141E-03
Spin= Alpha
Occup=   1.0000000000
   1       0.47169285
   2       0.22435439
   3      -0.75453586
   4       0.19883270
   5      -0.13843575
   6      -0.05046063
   7      -0.05065468
   8       0.03773752
   9       0.00197522
  10       0.00004873
  11      -0.50304553
  12       0.00000000
  13       0.00000000
  14       0.19827804
  15       0.00000000
  16      -0.00000000
  17      -0.37434509
  18      -0.00000000
  19       0.00000000
  20      -0.08419448
  21       0.00000000
  22      -0.00000000
  23      -0.27629803
  24      -0.02658917
  25      -0.02658917
  26       0.00000000
  27       0.00000000
  28       0.00000000
  29      -0.07336832
  30      -0.09113405
  31      -0.09113405
  32       0.00000000
  33      -0.00000000
  34      -0.00000000
  35       0.47169285
  36       0.22435439
  37      -0.75453586
  38       0.19883270
  39      -0.13843575
  40      -0.05046063
  41      -0.05065468
  42       0.03773752
  43       0.00197522
  44       0.00004873
  45       0.50304553
  46      -0.00000000
  47      -0.00000000
  48      -0.19827804
  49      -0.00000000
  50       0.00000000
  51       0.37434509
  52       0.00000000
  53      -0.00000000
  54       0.08419448
  55      -0.00000000
  56       0.00000000
  57      -0.27629803
  58      -0.02658917
  59      -0.02658917
  60       0.00000000
  61      -0.00000000
  62      -0.00000000
  63      -0.07336832
  64      -0.09113405
  65      -0.09113405
  66       0.00000000
  67      -0.00000000
  68       0.00000000
Ene=     6.96484E-03
Spin= Alpha
Occup=   0.0000000000
   1       0.01999041
   2      -0.62433945
   3      -0.07482591
   4      -0.43024282
   5      -0.07661388
   6      -0.18846311
   7      -0.08641237
   8       0.07524709
   9       0.00607641
  10      -0.00020821
  11      -0.04277132
  12       0.00000000
  13       0.00000000
  14      -0.46396893
  15      -0.00000000
  16      -0.00000000
  17       0.12161459
  18       0.00000000
  19       0.00000000
  20      -0.32956477
  21      -0.00000000
  22      -0.00000000
  23      -0.03356624
  24      -0.02604597
  25      -0.02604597
  26       0.00000000
  27       0.00000000
  28       0.00000000
  29      -0.20644064
  30      -0.06888796
  31      -0.06888796
  32      -0.00000000
  33      -0.00000000
  34      -0.00000000
  35      -0.01999041
  36       0.62433945
  37       0.07482591
  38       0.43024282
  39       0.07661388
  40       0.18846311
  41       0.08641237
  42      -0.07524709
  43      -0.00607641
  44       0.00020821
  45      -0.04277132
  46      -0.00000000
  47      -0.00000000
  48      -0.46396893
  49       0.00000000
  50       0.00000000
  51       0.12161459
  52      -0.00000000
  53      -0.00000000
  54      -0.32956477
  55       0.00000000
  56       0.00000000
  57       0.03356624
  58       0.02604597
  59       0.02604597
  60       0.00000000
  61       0.00000000
  62      -0.00000000
  63       0.20644064
  64       0.06888796
  65       0.06888796
  66      -0.00000000
  67       0.00000000
  68       0.00000000
Ene=     8.81249E-03
Spin= Alpha
Occup=   0.0000000000
   1       0.35461439
   2       0.06250255
   3      -0.64168173
   4       0.76746538
   5       0.05046580
   6       0.22076987
   7       0.08698464
   8      -0.07893886
   9      -0.00692521
  10       0.00029530
  11      -0.56304497
  12      -0.00000000
  13      -0.00000000
  14       0.22752725
  15       0.00000000
  16       0.00000000
  17      -0.49672740
  18       0.00000000
  19       0.00000000
  20       0.33501876
  21      -0.00000000
  22      -0.00000000
  23      -0.28712046
  24      -0.00438791
  25      -0.00438791
  26      -0.00000000
  27      -0.00000000
  28      -0.00000000
  29       0.01280318
  30      -0.01502881
  31      -0.01502881
  32      -0.00000000
  33      -0.00000000
  34       0.00000000
  35       0.35461439
  36       0.06250255
  37      -0.64168173
  38       0.76746538
  39       0.05046580
  40       0.22076987
  41       0.08698464
  42      -0.07893886
  43      -0.00692521
  44       0.00029530
  45       0.56304497
  46       0.00000000
  47       0.00000000
  48      -0.22752725
  49      -0.00000000
  50      -0.00000000
  51       0.49672740
  52       0.00000000
  53       0.00000000
  54      -0.33501876
  55      -0.00000000
  56      -0.00000000
  57      -0.28712046
  58      -0.00438791
  59      -0.00438791
  60      -0.00000000
  61      -0.00000000
  62      -0.00000000
  63       0.01280318
  64      -0.01502881
  65      -0.01502881
  66       0.00000000
  67       0.00000000
  68       0.00000000
Ene=     1.50969E-02
Spin= Alpha
Occup=   0.0000000000
   1      -0.02294907
   2      -2.61636804
   3       0.95507810
   4       0.05512323
   5      -0.53920618
   6      -0.10098657
   7      -0.11230041
   8       0.08211403
   9       0.00419153
  10       0.00013193
  11       0.12655998
  12       0.00000000
  13       0.00000000
  14      -1.52047047
  15      -0.00000000
  16      -0.00000000
  17       0.33528872
  18       0.00000000
  19       0.00000000
  20       0.32959317
  21      -0.00000000
  22      -0.00000000
  23       0.10525419
  24       0.08223671
  25       0.08223671
  26       0.00000000
  27       0.00000000
  28       0.00000000
  29      -0.31153362
  30       0.14142876
  31       0.14142876
  32      -0.00000000
  33      -0.00000000
  34      -0.00000000
  35       0.02294907
  36       2.61636804
  37      -0.95507810
  38      -0.05512323
  39       0.53920618
  40       0.10098657
  41       0.11230041
  42      -0.08211403
  43      -0.00419153
  44      -0.00013193
  45       0.12655998
  46      -0.00000000
  47      -0.00000000
  48      -1.52047047
  49       0.00000000
  50       0.00000000
  51       0.33528872
  52      -0.00000000
  53      -0.00000000
  54       0.32959317
  55       0.00000000
  56       0.00000000
  57      -0.10525419
  58      -0.08223671
  59      -0.08223671
  60       0.00000000
  61       0.00000000
  62      -0.00000000
  63       0.31153362
  64      -0.14142876
  65      -0.14142876
  66       0.00000000
  67      -0.00000000
  68       0.00000000
Ene=     1.74834E-02
Spin= Alpha
Occup=   0.0000000000
   1      -0.00000000
   2       0.00000000
   3      -0.00000000
   4       0.00000000
   5      -0.00000000
   6      -0.00000000
   7      -0.00000000
   8       0.00000000
   9       0.00000000
  10      -0.00000000
  11       0.00000000
  12      -0.03163019
  13      -0.06176987
  14       0.00000000
  15       0.07818441
  16       0.15268453
  17      -0.00000000
  18      -0.29241044
  19      -0.57104161
  20       0.00000000
  21      -0.04276132
  22      -0.08350760
  23       0.00000000
  24       0.00000000
  25       0.00000000
  26       0.04113013
  27       0.08032207
  28       0.00000000
  29       0.00000000
  30       0.00000000
  31       0.00000000
  32      -0.06384029
  33      -0.12467223
  34      -0.00000000
  35       0.00000000
  36      -0.00000000
  37       0.00000000
  38       0.00000000
  39      -0.00000000
  40       0.00000000
  41      -0.00000000
  42       0.00000000
  43       0.00000000
  44      -0.00000000
  45       0.00000000
  46      -0.03163019
  47      -0.06176987
  48       0.00000000
  49       0.07818441
  50       0.15268453
  51      -0.00000000
  52      -0.29241044
  53      -0.57104161
  54      -0.00000000
  55      -0.04276132
  56      -0.08350760
  57      -0.00000000
  58      -0.00000000
  59      -0.00000000
  60      -0.04113013
  61      -0.08032207
  62      -0.00000000
  63      -0.00000000
  64      -0.00000000
  65      -0.00000000
  66       0.06384029
  67       0.12467223
  68       0.00000000
Ene=     1.74834E-02
Spin= Alpha
Occup=   0.0000000000
   1       0.00000000
   2      -0.00000000
   3       0.00000000
   4      -0.00000000
   5       0.00000000
   6      -0.00000000
   7       0.00000000
   8       0.00000000
   9      -0.00000000
  10       0.00000000
  11      -0.00000000
  12       0.06176987
  13      -0.03163019
  14      -0.00000000
  15      -0.15268453
  16       0.07818441
  17       0.00000000
  18       0.57104161
  19      -0.29241044
  20      -0.00000000
  21       0.08350760
  22      -0.04276132
  23      -0.00000000
  24      -0.00000000
  25      -0.00000000
  26      -0.08032207
  27       0.04113013
  28       0.00000000
  29      -0.00000000
  30      -0.00000000
  31      -0.00000000
  32       0.12467223
  33      -0.06384029
  34       0.00000000
  35      -0.00000000
  36       0.00000000
  37      -0.00000000
  38       0.00000000
  39      -0.00000000
  40      -0.00000000
  41      -0.00000000
  42       0.00000000
  43      -0.00000000
  44       0.00000000
  45      -0.00000000
  46       0.06176987
  47      -0.03163019
  48      -0.00000000
  49      -0.15268453
  50       0.07818441
  51       0.00000000
  52       0.57104161
  53      -0.29241044
  54      -0.00000000
  55       0.08350760
  56      -0.04276132
  57       0.00000000
  58       0.00000000
  59       0.00000000
  60       0.08032207
  61      -0.04113013
  62      -0.00000000
  63       0.00000000
  64       0.00000000
  65       0.00000000
  66      -0.12467223
  67       0.06384029
  68       0.00000000
Ene=     1.78240E-02
Spin= Alpha
Occup=   0.0000000000
   1      -0.72028904
   2      -0.48082011
   3       0.20836287
   4       1.01270517
   5      -0.82398048
   6      -0.00938612
   7      -0.11963006
   8       0.07722079
   9       0.00202123
  10       0.00040092
  11      -0.11049836
  12      -0.00000000
  13      -0.00000000
  14      -0.02680457
  15      -0.00000000
  16       0.00000000
  17      -0.44520444
  18       0.00000000
  19       0.00000000
  20       0.75372704
  21      -0.00000000
  22      -0.00000000
  23       0.06948857
  24       0.11248721
  25       0.11248721
  26       0.00000000
  27      -0.00000000
  28       0.00000000
  29       0.24760918
  30       0.35784156
  31       0.35784156
  32       0.00000000
  33       0.00000000
  34      -0.00000000
  35      -0.72028904
  36      -0.48082011
  37       0.20836287
  38       1.01270517
  39      -0.82398048
  40      -0.00938612
  41      -0.11963006
  42       0.07722079
  43       0.00202123
  44       0.00040092
  45       0.11049836
  46       0.00000000
  47       0.00000000
  48       0.02680457
  49      -0.00000000
  50      -0.00000000
  51       0.44520444
  52       0.00000000
  53       0.00000000
  54      -0.75372704
  55      -0.00000000
  56      -0.00000000
  57       0.06948857
  58       0.11248721
  59       0.11248721
  60      -0.00000000
  61      -0.00000000
  62      -0.00000000
  63       0.24760918
  64       0.35784156
  65       0.35784156
  66      -0.00000000
  67       0.00000000
  68       0.00000000
Ene=     2.02882E-02
Spin= Alpha
Occup=   0.0000000000
   1      -0.00000000
   2       0.00000000
   3       0.00000000
   4      -0.00000000
   5       0.00000000
   6      -0.00000000
   7       0.00000000
   8       0.00000000
   9      -0.00000000
  10       0.00000000
  11       0.00000000
  12       0.06114054
  13       0.18315318
  14       0.00000000
  15      -0.00776131
  16      -0.02324986
  17      -0.00000000
  18       0.05236245
  19       0.15685744
  20       0.00000000
  21       0.19349810
  22       0.57964472
  23       0.00000000
  24       0.00000000
  25       0.00000000
  26       0.01369052
  27       0.04101144
  28      -0.00000000
  29       0.00000000
  30       0.00000000
  31       0.00000000
  32       0.01249279
  33       0.03742351
  34      -0.00000000
  35      -0.00000000
  36      -0.00000000
  37       0.00000000
  38      -0.00000000
  39       0.00000000
  40       0.00000000
  41       0.00000000
  42      -0.00000000
  43      -0.00000000
  44       0.00000000
  45       0.00000000
  46      -0.06114054
  47      -0.18315318
  48       0.00000000
  49       0.00776131
  50       0.02324986
  51      -0.00000000
  52      -0.05236245
  53      -0.15685744
  54       0.00000000
  55      -0.19349810
  56      -0.57964472
  57      -0.00000000
  58      -0.00000000
  59      -0.00000000
  60       0.01369052
  61       0.04101144
  62      -0.00000000
  63      -0.00000000
  64      -0.00000000
  65      -0.00000000
  66       0.01249279
  67       0.03742351
  68      -0.00000000
Ene=     2.02882E-02
Spin= Alpha
Occup=   0.0000000000
   1       0.00000000
   2      -0.00000000
   3       0.00000000
   4      -0.00000000
   5       0.00000000
   6      -0.00000000
   7       0.00000000
   8      -0.00000000
   9      -0.00000000
  10       0.00000000
  11      -0.00000000
  12      -0.18315318
  13       0.06114054
  14      -0.00000000
  15       0.02324986
  16      -0.00776131
  17       0.00000000
  18      -0.15685744
  19       0.05236245
  20      -0.00000000
  21      -0.57964472
  22       0.19349810
  23      -0.00000000
  24      -0.00000000
  25      -0.00000000
  26      -0.04101144
  27       0.01369052
  28      -0.00000000
  29      -0.00000000
  30      -0.00000000
  31      -0.00000000
  32      -0.03742351
  33       0.01249279
  34       0.00000000
  35       0.00000000
  36       0.00000000
  37      -0.00000000
  38       0.00000000
  39      -0.00000000
  40       0.00000000
  41      -0.00000000
  42       0.00000000
  43       0.00000000
  44      -0.00000000
  45       0.00000000
  46       0.18315318
  47      -0.06114054
  48      -0.00000000
  49      -0.02324986
  50       0.00776131
  51       0.00000000
  52       0.15685744
  53      -0.05236245
  54      -0.00000000
  55       0.57964472
  56      -0.19349810
  57      -0.00000000
  58       0.00000000
  59       0.00000000
  60      -0.04101144
  61       0.01369052
  62       0.00000000
  63       0.00000000
  64       0.00000000
  65       0.00000000
  66      -0.03742351
  67       0.01249279
  68      -0.00000000
Ene=     2.14008E-02
Spin= Alpha
Occup=   0.0000000000
   1       0.04104451
   2      -6.90143852
   3       2.27106359
   4      -1.77880165
   5       0.71965905
   6      -0.07359532
   7       0.07351898
   8      -0.03941742
   9       0.00064507
  10      -0.00044478
  11       0.04964195
  12      -0.00000000
  13       0.00000000
  14      -4.41710326
  15       0.00000000
  16      -0.00000000
  17       1.50007362
  18      -0.00000000
  19       0.00000000
  20      -0.73203116
  21       0.00000000
  22      -0.00000000
  23       0.02931408
  24       0.04685981
  25       0.04685981
  26      -0.00000000
  27       0.00000000
  28      -0.00000000
  29      -1.31558325
  30      -0.05192882
  31      -0.05192882
  32      -0.00000000
  33      -0.00000000
  34       0.00000000
  35      -0.04104451
  36       6.90143852
  37      -2.27106359
  38       1.77880165
  39      -0.71965905
  40       0.07359532
  41      -0.07351898
  42       0.03941742
  43      -0.00064507
  44       0.00044478
  45       0.04964195
  46       0.00000000
  47      -0.00000000
  48      -4.41710326
  49      -0.00000000
  50       0.00000000
  51       1.50007362
  52      -0.00000000
  53       0.00000000
  54      -0.73203116
  55       0.00000000
  56      -0.00000000
  57      -0.02931408
  58      -0.04685981
  59      -0.04685981
  60      -0.00000000
  61       0.00000000
  62       0.00000000
  63       1.31558325
  64       0.05192882
  65       0.05192882
  66       0.00000000
  67      -0.00000000
  68      -0.00000000
Ene=     2.35172E-02
Spin= Alpha
Occup=   0.0000000000
   1      -0.00000000
   2       0.00000000
   3       0.00000000
   4      -0.00000000
   5       0.00000000
   6       0.00000000
   7      -0.00000000
   8      -0.00000000
   9       0.00000000
  10      -0.00000000
  11       0.00000000
  12       0.06082441
  13      -0.01937713
  14       0.00000000
  15      -0.15559219
  16       0.04956777
  17       0.00000000
  18       0.74062314
  19      -0.23594396
  20      -0.00000000
  21      -0.95181395
  22       0.30322406
  23       0.00000000
  24       0.00000000
  25       0.00000000
  26      -0.07857484
  27       0.02503197
  28       0.00000000
  29       0.00000000
  30       0.00000000
  31       0.00000000
  32       0.12173782
  33      -0.03878262
  34      -0.00000000
  35      -0.00000000
  36      -0.00000000
  37      -0.00000000
  38       0.00000000
  39      -0.00000000
  40       0.00000000
  41      -0.00000000
  42      -0.00000000
  43       0.00000000
  44      -0.00000000
  45      -0.00000000
  46       0.06082441
  47      -0.01937713
  48       0.00000000
  49      -0.15559219
  50       0.04956777
  51      -0.00000000
  52       0.74062314
  53      -0.23594396
  54      -0.00000000
  55      -0.95181395
  56       0.30322406
  57       0.00000000
  58      -0.00000000
  59      -0.00000000
  60       0.07857484
  61      -0.02503197
  62      -0.00000000
  63      -0.00000000
  64      -0.00000000
  65      -0.00000000
  66      -0.12173782
  67       0.03878262
  68       0.00000000
Ene=     2.35172E-02
Spin= Alpha
Occup=   0.0000000000
   1      -0.00000000
   2       0.00000000
   3       0.00000000
   4      -0.00000000
   5       0.00000000
   6      -0.00000000
   7       0.00000000
   8      -0.00000000
   9      -0.00000000
  10       0.00000000
  11       0.00000000
  12      -0.01937713
  13      -0.06082441
  14       0.00000000
  15       0.04956777
  16       0.15559219
  17       0.00000000
  18      -0.23594396
  19      -0.74062314
  20      -0.00000000
  21       0.30322406
  22       0.95181395
  23       0.00000000
  24      -0.00000000
  25      -0.00000000
  26       0.02503197
  27       0.07857484
  28       0.00000000
  29       0.00000000
  30       0.00000000
  31       0.00000000
  32      -0.03878262
  33      -0.12173782
  34      -0.00000000
  35      -0.00000000
  36      -0.00000000
  37       0.00000000
  38       0.00000000
  39      -0.00000000
  40      -0.00000000
  41       0.00000000
  42       0.00000000
  43      -0.00000000
  44       0.00000000
  45      -0.00000000
  46      -0.01937713
  47      -0.06082441
  48       0.00000000
  49       0.04956777
  50       0.15559219
  51       0.00000000
  52      -0.23594396
  53      -0.74062314
  54      -0.00000000
  55       0.30322406
  56       0.95181395
  57       0.00000000
  58       0.00000000
  59       0.00000000
  60      -0.02503197
  61      -0.07857484
  62      -0.00000000
  63      -0.00000000
  64       0.00000000
  65       0.00000000
  66       0.03878262
  67       0.12173782
  68       0.00000000
Ene=     2.79021E-02
Spin= Alpha
Occup=   0.0000000000
   1      -0.83070965
   2      -0.12472927
   3       0.11821885
   4      -0.71663483
   5       0.54512603
   6       0.01919582
   7       0.06098502
   8      -0.04067891
   9      -0.00144128
  10      -0.00016212
  11       0.79003642
  12       0.00000000
  13      -0.00000000
  14      -0.32024233
  15      -0.00000000
  16       0.00000000
  17       0.37630910
  18       0.00000000
  19       0.00000000
  20       0.19569590
  21      -0.00000000
  22      -0.00000000
  23       0.46490351
  24       0.05443486
  25       0.05443486
  26       0.00000000
  27      -0.00000000
  28      -0.00000000
  29       0.05224156
  30       0.14680065
  31       0.14680065
  32      -0.00000000
  33       0.00000000
  34       0.00000000
  35      -0.83070965
  36      -0.12472927
  37       0.11821885
  38      -0.71663483
  39       0.54512603
  40       0.01919582
  41       0.06098502
  42      -0.04067891
  43      -0.00144128
  44      -0.00016212
  45      -0.79003642
  46      -0.00000000
  47       0.00000000
  48       0.32024233
  49       0.00000000
  50      -0.00000000
  51      -0.37630910
  52      -0.00000000
  53      -0.00000000
  54      -0.19569590
  55       0.00000000
  56       0.00000000
  57       0.46490351
  58       0.05443486
  59       0.05443486
  60       0.00000000
  61       0.00000000
  62       0.00000000
  63       0.05224156
  64       0.14680065
  65       0.14680065
  66      -0.00000000
  67       0.00000000
  68      -0.00000000
Ene=     2.82863E-02
Spin= Alpha
Occup=   0.0000000000
   1       0.00000000
   2       0.00000000
   3       0.00000000
   4      -0.00000000
   5      -0.00000000
   6      -0.00000000
   7      -0.00000000
   8       0.00000000
   9      -0.00000000
  10       0.00000000
  11      -0.00000000
  12      -0.21495475
  13       1.47949987
  14       0.00000000
  15       0.06830370
  16      -0.47012368
  17      -0.00000000
  18      -0.19943722
  19       1.37269511
  20      -0.00000000
  21       0.12779138
  22      -0.87956807
  23      -0.00000000
  24      -0.00000000
  25      -0.00000000
  26      -0.05672768
  27       0.39044774
  28       0.00000000
  29       0.00000000
  30       0.00000000
  31       0.00000000
  32      -0.00118755
  33       0.00817372
  34      -0.00000000
  35      -0.00000000
  36      -0.00000000
  37       0.00000000
  38      -0.00000000
  39       0.00000000
  40      -0.00000000
  41       0.00000000
  42       0.00000000
  43      -0.00000000
  44       0.00000000
  45       0.00000000
  46       0.21495475
  47      -1.47949987
  48       0.00000000
  49      -0.06830370
  50       0.47012368
  51      -0.00000000
  52       0.19943722
  53      -1.37269511
  54       0.00000000
  55      -0.12779138
  56       0.87956807
  57      -0.00000000
  58       0.00000000
  59       0.00000000
  60      -0.05672768
  61       0.39044774
  62       0.00000000
  63      -0.00000000
  64       0.00000000
  65       0.00000000
  66      -0.00118755
  67       0.00817372
  68      -0.00000000
Ene=     2.82863E-02
Spin= Alpha
Occup=   0.0000000000
   1      -0.00000000
   2      -0.00000000
   3       0.00000000
   4      -0.00000000
   5       0.00000000
   6      -0.00000000
   7       0.00000000
   8       0.00000000
   9      -0.00000000
  10       0.00000000
  11      -0.00000000
  12       1.47949987
  13       0.21495475
  14      -0.00000000
  15      -0.47012368
  16      -0.06830370
  17      -0.00000000
  18       1.37269511
  19       0.19943722
  20      -0.00000000
  21      -0.87956807
  22      -0.12779138
  23      -0.00000000
  24       0.00000000
  25       0.00000000
  26       0.39044774
  27       0.05672768
  28       0.00000000
  29      -0.00000000
  30       0.00000000
  31       0.00000000
  32       0.00817372
  33       0.00118755
  34      -0.00000000
  35       0.00000000
  36       0.00000000
  37      -0.00000000
  38       0.00000000
  39      -0.00000000
  40      -0.00000000
  41       0.00000000
  42       0.00000000
  43       0.00000000
  44      -0.00000000
  45       0.00000000
  46      -1.47949987
  47      -0.21495475
  48      -0.00000000
  49       0.47012368
  50       0.06830370
  51       0.00000000
  52      -1.37269511
  53      -0.19943722
  54      -0.00000000
  55       0.87956807
  56       0.12779138
  57      -0.00000000
  58       0.00000000
  59       0.00000000
  60       0.39044774
  61       0.05672768
  62      -0.00000000
  63       0.00000000
  64       0.00000000
  65       0.00000000
  66       0.00817372
  67       0.00118755
  68       0.00000000
Ene=     2.94892E-02
Spin= Alpha
Occup=   0.0000000000
   1      -0.02387492
   2       1.75672087
   3      -0.55395368
   4       1.24765535
   5      -0.71952142
   6      -0.00300059
   7      -0.07266181
   8       0.04646994
   9       0.00125438
  10       0.00024158
  11       0.02229291
  12       0.00000000
  13      -0.00000000
  14       1.27009268
  15       0.00000000
  16      -0.00000000
  17      -0.72712970
  18       0.00000000
  19      -0.00000000
  20      -0.20282226
  21      -0.00000000
  22       0.00000000
  23       0.03174982
  24       0.00148320
  25       0.00148320
  26       0.00000000
  27      -0.00000000
  28      -0.00000000
  29       0.43647605
  30       0.10290370
  31       0.10290370
  32       0.00000000
  33      -0.00000000
  34       0.00000000
  35       0.02387492
  36      -1.75672087
  37       0.55395368
  38      -1.24765535
  39       0.71952142
  40       0.00300059
  41       0.07266181
  42      -0.04646994
  43      -0.00125438
  44      -0.00024158
  45       0.02229291
  46      -0.00000000
  47       0.00000000
  48       1.27009268
  49      -0.00000000
  50      -0.00000000
  51      -0.72712970
  52       0.00000000
  53       0.00000000
  54      -0.20282226
  55       0.00000000
  56      -0.00000000
  57      -0.03174982
  58      -0.00148320
  59      -0.00148320
  60       0.00000000
  61      -0.00000000
  62       0.00000000
  63      -0.43647605
  64      -0.10290370
  65      -0.10290370
  66       0.00000000
  67      -0.00000000
  68       0.00000000
Ene=     3.17106E-02
Spin= Alpha
Occup=   0.0000000000
   1      -5.46833153
   2      -2.24058636
   3       4.19051085
   4      -1.61339348
   5       0.45587119
   6       0.00666821
   7       0.03232329
   8      -0.02157527
   9      -0.00082407
  10      -0.00007802
  11       2.94261016
  12       0.00000000
  13      -0.00000000
  14      -1.44966793
  15      -0.00000000
  16       0.00000000
  17       0.85485046
  18       0.00000000
  19      -0.00000000
  20      -0.52622873
  21      -0.00000000
  22       0.00000000
  23       2.14676128
  24       0.55066059
  25       0.55066059
  26       0.00000000
  27      -0.00000000
  28      -0.00000000
  29       0.88557283
  30       1.64219902
  31       1.64219902
  32      -0.00000000
  33       0.00000000
  34      -0.00000000
  35      -5.46833153
  36      -2.24058636
  37       4.19051085
  38      -1.61339348
  39       0.45587119
  40       0.00666821
  41       0.03232329
  42      -0.02157527
  43      -0.00082407
  44      -0.00007802
  45      -2.94261016
  46      -0.00000000
  47       0.00000000
  48       1.44966793
  49       0.00000000
  50      -0.00000000
  51      -0.85485046
  52      -0.00000000
  53       0.00000000
  54       0.52622873
  55       0.00000000
  56      -0.00000000
  57       2.14676128
  58       0.55066059
  59       0.55066059
  60       0.00000000
  61      -0.00000000
  62       0.00000000
  63       0.88557283
  64       1.64219902
  65       1.64219902
  66      -0.00000000
  67       0.00000000
  68      -0.00000000
Ene=     3.45564E-02
Spin= Alpha
Occup=   0.0000000000
   1      -0.85080430
   2      -0.85353195
   3       2.25631373
   4      -1.92849154
   5       0.79767093
   6      -0.02598195
   7       0.06556890
   8      -0.03903512
   9      -0.00048048
  10      -0.00028605
  11      -0.15229147
  12      -0.00000000
  13      -0.00000000
  14      -0.01713484
  15       0.00000000
  16       0.00000000
  17      -0.67321008
  18      -0.00000000
  19      -0.00000000
  20       0.59068493
  21       0.00000000
  22       0.00000000
  23       0.08656624
  24       0.13752386
  25       0.13752386
  26      -0.00000000
  27      -0.00000000
  28      -0.00000000
  29       0.30921750
  30       0.45362928
  31       0.45362928
  32       0.00000000
  33       0.00000000
  34       0.00000000
  35      -0.85080430
  36      -0.85353195
  37       2.25631373
  38      -1.92849154
  39       0.79767093
  40      -0.02598195
  41       0.06556890
  42      -0.03903512
  43      -0.00048048
  44      -0.00028605
  45       0.15229147
  46       0.00000000
  47       0.00000000
  48       0.01713484
  49      -0.00000000
  50      -0.00000000
  51       0.67321008
  52       0.00000000
  53       0.00000000
  54      -0.59068493
  55      -0.00000000
  56      -0.00000000
  57       0.08656624
  58       0.13752386
  59       0.13752386
  60      -0.00000000
  61      -0.00000000
  62       0.00000000
  63       0.30921750
  64       0.45362928
  65       0.45362928
  66       0.00000000
  67       0.00000000
  68      -0.00000000
Ene=     3.49634E-02
Spin= Alpha
Occup=   0.0000000000
   1       0.01055422
   2       5.35102301
   3       0.42892140
   4      -1.05302219
   5       0.52102267
   6      -0.03469805
   7       0.04480128
   8      -0.02485533
   9       0.00011770
  10      -0.00024223
  11      -0.14650162
  12       0.00000000