[Molden Format]
[Title]
 Molden2AIM, Version 3.1.0 (02/25/2015)           Time: Thu Oct 17 19:55:20 2024

[Atoms] AU
E+       1       4     0.00000000     0.00000000     0.00000000
E+       2       4    44.60000000     0.00000000     0.00000000
[GTO]
    1 0
 S   1 1.0
    0.1000000000D-03      0.1000000000D+01
 S   1 1.0
    0.3000000000D-03      0.1000000000D+01
 S   1 1.0
    0.9000000000D-03      0.1000000000D+01
 S   1 1.0
    0.2700000000D-02      0.1000000000D+01
 S   1 1.0
    0.8100000000D-02      0.1000000000D+01
 S   1 1.0
    0.2430000000D-01      0.1000000000D+01
 S   1 1.0
    0.7290000000D-01      0.1000000000D+01
 S   1 1.0
    0.2187000000D+00      0.1000000000D+01
 S   1 1.0
    0.6561000000D+00      0.1000000000D+01
 S   1 1.0
    0.1968300000D+01      0.1000000000D+01
 P   1 1.0
    0.1000000000D-03      0.1000000000D+01
 P   1 1.0
    0.3000000000D-03      0.1000000000D+01
 P   1 1.0
    0.9000000000D-03      0.1000000000D+01
 P   1 1.0
    0.2700000000D-02      0.1000000000D+01
 D   1 1.0
    0.1000000000D-03      0.1000000000D+01
 D   1 1.0
    0.3000000000D-03      0.1000000000D+01

    2 0
 S   1 1.0
    0.1000000000D-03      0.1000000000D+01
 S   1 1.0
    0.3000000000D-03      0.1000000000D+01
 S   1 1.0
    0.9000000000D-03      0.1000000000D+01
 S   1 1.0
    0.2700000000D-02      0.1000000000D+01
 S   1 1.0
    0.8100000000D-02      0.1000000000D+01
 S   1 1.0
    0.2430000000D-01      0.1000000000D+01
 S   1 1.0
    0.7290000000D-01      0.1000000000D+01
 S   1 1.0
    0.2187000000D+00      0.1000000000D+01
 S   1 1.0
    0.6561000000D+00      0.1000000000D+01
 S   1 1.0
    0.1968300000D+01      0.1000000000D+01
 P   1 1.0
    0.1000000000D-03      0.1000000000D+01
 P   1 1.0
    0.3000000000D-03      0.1000000000D+01
 P   1 1.0
    0.9000000000D-03      0.1000000000D+01
 P   1 1.0
    0.2700000000D-02      0.1000000000D+01
 D   1 1.0
    0.1000000000D-03      0.1000000000D+01
 D   1 1.0
    0.3000000000D-03      0.1000000000D+01


[MO]
 Ene=         -0.00231843
 Spin= Alpha
 Occup=        1.00000000
    1       -0.0000336700
    2       -0.0304408400
    3        0.0483788900
    4        0.2119807700
    5        0.2803460800
    6        0.1935462400
    7        0.1184137700
    8       -0.0959574600
    9       -0.0066122100
   10        0.0000990900
   11       -0.0135661500
   12        0.0000000000
   13        0.0000000000
   14        0.0142182600
   15       -0.0000000000
   16        0.0000000000
   17       -0.0012135300
   18        0.0000000000
   19       -0.0000000000
   20        0.1127876700
   21       -0.0000000000
   22       -0.0000000000
   23       -0.0053374700
   24        0.0009668700
   25        0.0009668700
   26        0.0000000000
   27       -0.0000000000
   28        0.0000000000
   29        0.0159093000
   30        0.0049491900
   31        0.0049491900
   32       -0.0000000000
   33        0.0000000000
   34       -0.0000000000
   35       -0.0000336700
   36       -0.0304408400
   37        0.0483788900
   38        0.2119807700
   39        0.2803460800
   40        0.1935462400
   41        0.1184137700
   42       -0.0959574600
   43       -0.0066122100
   44        0.0000990900
   45        0.0135661500
   46       -0.0000000000
   47       -0.0000000000
   48       -0.0142182600
   49        0.0000000000
   50       -0.0000000000
   51        0.0012135300
   52       -0.0000000000
   53        0.0000000000
   54       -0.1127876700
   55        0.0000000000
   56       -0.0000000000
   57       -0.0053374700
   58        0.0009668700
   59        0.0009668700
   60        0.0000000000
   61        0.0000000000
   62        0.0000000000
   63        0.0159093000
   64        0.0049491900
   65        0.0049491900
   66       -0.0000000000
   67        0.0000000000
   68        0.0000000000
 Ene=         -0.00206658
 Spin= Alpha
 Occup=        0.00000000
    1        0.0154582400
    2       -1.0565228800
    3        0.0038260900
    4       -0.2693460600
    5       -0.2701900200
    6       -0.2132117500
    7       -0.1207453600
    8        0.0995460500
    9        0.0071699200
   10       -0.0001470700
   11       -0.0108952400
   12        0.0000000000
   13        0.0000000000
   14       -0.4730040400
   15       -0.0000000000
   16        0.0000000000
   17        0.0530984100
   18        0.0000000000
   19       -0.0000000000
   20       -0.1389559300
   21        0.0000000000
   22        0.0000000000
   23       -0.0115498600
   24       -0.0105454500
   25       -0.0105454500
   26        0.0000000000
   27        0.0000000000
   28       -0.0000000000
   29       -0.1334614500
   30       -0.0263028600
   31       -0.0263028600
   32       -0.0000000000
   33       -0.0000000000
   34        0.0000000000
   35       -0.0154582400
   36        1.0565228800
   37       -0.0038260900
   38        0.2693460600
   39        0.2701900200
   40        0.2132117500
   41        0.1207453600
   42       -0.0995460500
   43       -0.0071699200
   44        0.0001470700
   45       -0.0108952400
   46       -0.0000000000
   47       -0.0000000000
   48       -0.4730040400
   49        0.0000000000
   50        0.0000000000
   51        0.0530984100
   52       -0.0000000000
   53       -0.0000000000
   54       -0.1389559300
   55        0.0000000000
   56        0.0000000000
   57        0.0115498600
   58        0.0105454500
   59        0.0105454500
   60        0.0000000000
   61       -0.0000000000
   62        0.0000000000
   63        0.1334614500
   64        0.0263028600
   65        0.0263028600
   66       -0.0000000000
   67        0.0000000000
   68       -0.0000000000
 Ene=          0.00461457
 Spin= Alpha
 Occup=        0.00000000
    1       -0.6109251300
    2       -0.1383939400
    3        0.9410920400
    4       -0.5331325600
    5       -0.0957026600
    6       -0.1269567300
    7       -0.0459930000
    8        0.0424624000
    9        0.0038788400
   10       -0.0001758600
   11        0.9335945100
   12        0.0000000000
   13       -0.0000000000
   14       -0.3022727100
   15       -0.0000000000
   16       -0.0000000000
   17        0.4517710200
   18        0.0000000000
   19       -0.0000000000
   20       -0.0338419900
   21       -0.0000000000
   22        0.0000000000
   23        0.3920658800
   24        0.0285101900
   25        0.0285101900
   26        0.0000000000
   27       -0.0000000000
   28        0.0000000000
   29       -0.0031587900
   30        0.0945828200
   31        0.0945828200
   32       -0.0000000000
   33       -0.0000000000
   34       -0.0000000000
   35       -0.6109251300
   36       -0.1383939400
   37        0.9410920400
   38       -0.5331325600
   39       -0.0957026600
   40       -0.1269567300
   41       -0.0459930000
   42        0.0424624000
   43        0.0038788400
   44       -0.0001758600
   45       -0.9335945100
   46       -0.0000000000
   47        0.0000000000
   48        0.3022727100
   49        0.0000000000
   50        0.0000000000
   51       -0.4517710200
   52       -0.0000000000
   53        0.0000000000
   54        0.0338419900
   55        0.0000000000
   56        0.0000000000
   57        0.3920658800
   58        0.0285101900
   59        0.0285101900
   60        0.0000000000
   61       -0.0000000000
   62       -0.0000000000
   63       -0.0031587900
   64        0.0945828200
   65        0.0945828200
   66       -0.0000000000
   67       -0.0000000000
   68        0.0000000000
 Ene=          0.00905441
 Spin= Alpha
 Occup=        0.00000000
    1        0.0000000000
    2        0.0000000000
    3       -0.0000000000
    4        0.0000000000
    5        0.0000000000
    6        0.0000000000
    7        0.0000000000
    8       -0.0000000000
    9       -0.0000000000
   10        0.0000000000
   11       -0.0000000000
   12       -0.0259049300
   13        0.0247019400
   14        0.0000000000
   15        0.0725223500
   16       -0.0691545200
   17       -0.0000000000
   18       -0.2403435400
   19        0.2291823500
   20       -0.0000000000
   21       -0.2901183800
   22        0.2766457200
   23       -0.0000000000
   24       -0.0000000000
   25       -0.0000000000
   26        0.0206469800
   27       -0.0196881700
   28        0.0000000000
   29        0.0000000000
   30       -0.0000000000
   31       -0.0000000000
   32       -0.0419398500
   33        0.0399922200
   34        0.0000000000
   35        0.0000000000
   36       -0.0000000000
   37        0.0000000000
   38       -0.0000000000
   39        0.0000000000
   40       -0.0000000000
   41        0.0000000000
   42       -0.0000000000
   43       -0.0000000000
   44       -0.0000000000
   45        0.0000000000
   46       -0.0259049300
   47        0.0247019400
   48        0.0000000000
   49        0.0725223500
   50       -0.0691545200
   51       -0.0000000000
   52       -0.2403435400
   53        0.2291823500
   54        0.0000000000
   55       -0.2901183800
   56        0.2766457200
   57       -0.0000000000
   58        0.0000000000
   59        0.0000000000
   60       -0.0206469800
   61        0.0196881700
   62       -0.0000000000
   63       -0.0000000000
   64        0.0000000000
   65        0.0000000000
   66        0.0419398500
   67       -0.0399922200
   68        0.0000000000
 Ene=          0.00905441
 Spin= Alpha
 Occup=        0.00000000
    1       -0.0000000000
    2        0.0000000000
    3       -0.0000000000
    4        0.0000000000
    5       -0.0000000000
    6       -0.0000000000
    7        0.0000000000
    8        0.0000000000
    9       -0.0000000000
   10       -0.0000000000
   11       -0.0000000000
   12       -0.0247019400
   13       -0.0259049300
   14        0.0000000000
   15        0.0691545200
   16        0.0725223500
   17       -0.0000000000
   18       -0.2291823500
   19       -0.2403435400
   20        0.0000000000
   21       -0.2766457200
   22       -0.2901183800
   23       -0.0000000000
   24        0.0000000000
   25        0.0000000000
   26        0.0196881700
   27        0.0206469800
   28        0.0000000000
   29        0.0000000000
   30        0.0000000000
   31        0.0000000000
   32       -0.0399922200
   33       -0.0419398500
   34       -0.0000000000
   35        0.0000000000
   36       -0.0000000000
   37        0.0000000000
   38       -0.0000000000
   39        0.0000000000
   40       -0.0000000000
   41        0.0000000000
   42       -0.0000000000
   43        0.0000000000
   44       -0.0000000000
   45        0.0000000000
   46       -0.0247019400
   47       -0.0259049300
   48        0.0000000000
   49        0.0691545200
   50        0.0725223500
   51       -0.0000000000
   52       -0.2291823500
   53       -0.2403435400
   54        0.0000000000
   55       -0.2766457200
   56       -0.2901183800
   57       -0.0000000000
   58       -0.0000000000
   59       -0.0000000000
   60       -0.0196881700
   61       -0.0206469800
   62        0.0000000000
   63       -0.0000000000
   64       -0.0000000000
   65       -0.0000000000
   66        0.0399922200
   67        0.0419398500
   68        0.0000000000
 Ene=          0.01046090
 Spin= Alpha
 Occup=        0.00000000
    1        0.1167065900
    2      -11.9958645000
    3        1.5141299500
    4        0.2585335300
    5       -0.5705978900
    6       -0.0529014400
    7       -0.0860353900
    8        0.0598755600
    9        0.0025276600
   10        0.0001770800
   11        0.1003983200
   12       -0.0000000000
   13       -0.0000000000
   14       -5.0944728300
   15        0.0000000000
   16        0.0000000000
   17        0.5688985200
   18       -0.0000000000
   19       -0.0000000000
   20        0.4398337400
   21       -0.0000000000
   22        0.0000000000
   23        0.0852346600
   24        0.0620504500
   25        0.0620504500
   26       -0.0000000000
   27       -0.0000000000
   28       -0.0000000000
   29       -1.0538208600
   30        0.1079439200
   31        0.1079439200
   32        0.0000000000
   33        0.0000000000
   34        0.0000000000
   35       -0.1167065900
   36       11.9958645000
   37       -1.5141299500
   38       -0.2585335300
   39        0.5705978900
   40        0.0529014400
   41        0.0860353900
   42       -0.0598755600
   43       -0.0025276600
   44       -0.0001770800
   45        0.1003983200
   46        0.0000000000
   47        0.0000000000
   48       -5.0944728300
   49       -0.0000000000
   50       -0.0000000000
   51        0.5688985200
   52        0.0000000000
   53       -0.0000000000
   54        0.4398337400
   55        0.0000000000
   56       -0.0000000000
   57       -0.0852346600
   58       -0.0620504500
   59       -0.0620504500
   60       -0.0000000000
   61       -0.0000000000
   62        0.0000000000
   63        1.0538208600
   64       -0.1079439200
   65       -0.1079439200
   66        0.0000000000
   67        0.0000000000
   68       -0.0000000000
 Ene=          0.01097330
 Spin= Alpha
 Occup=        0.00000000
    1        0.2751701900
    2       -0.2701585000
    3       -0.5654593200
    4        1.4085718800
    5       -0.7604648200
    6        0.0517144100
    7       -0.0876985000
    8        0.0502993600
    9       -0.0000089700
   10        0.0004526200
   11       -1.1755980500
   12       -0.0000000000
   13        0.0000000000
   14        0.3173374500
   15       -0.0000000000
   16        0.0000000000
   17       -0.6610268200
   18       -0.0000000000
   19       -0.0000000000
   20        0.7964163400
   21        0.0000000000
   22       -0.0000000000
   23       -0.4238576900
   24        0.0361886700
   25        0.0361886700
   26       -0.0000000000
   27        0.0000000000
   28       -0.0000000000
   29        0.2054920400
   30        0.1216785900
   31        0.1216785900
   32       -0.0000000000
   33        0.0000000000
   34        0.0000000000
   35        0.2751701900
   36       -0.2701585000
   37       -0.5654593200
   38        1.4085718800
   39       -0.7604648200
   40        0.0517144100
   41       -0.0876985000
   42        0.0502993600
   43       -0.0000089700
   44        0.0004526200
   45        1.1755980500
   46        0.0000000000
   47       -0.0000000000
   48       -0.3173374500
   49        0.0000000000
   50       -0.0000000000
   51        0.6610268200
   52        0.0000000000
   53       -0.0000000000
   54       -0.7964163400
   55       -0.0000000000
   56        0.0000000000
   57       -0.4238576900
   58        0.0361886700
   59        0.0361886700
   60       -0.0000000000
   61        0.0000000000
   62        0.0000000000
   63        0.2054920400
   64        0.1216785900
   65        0.1216785900
   66       -0.0000000000
   67        0.0000000000
   68       -0.0000000000
 Ene=          0.01125860
 Spin= Alpha
 Occup=        0.00000000
    1        0.0000000000
    2       -0.0000000000
    3       -0.0000000000
    4        0.0000000000
    5       -0.0000000000
    6        0.0000000000
    7       -0.0000000000
    8       -0.0000000000
    9        0.0000000000
   10       -0.0000000000
   11        0.0000000000
   12        0.0609600900
   13       -0.1287529300
   14       -0.0000000000
   15       -0.0453855900
   16        0.0958582600
   17       -0.0000000000
   18        0.0065812500
   19       -0.0139001700
   20        0.0000000000
   21       -0.3161948000
   22        0.6678305100
   23        0.0000000000
   24       -0.0000000000
   25       -0.0000000000
   26        0.0151094300
   27       -0.0319124000
   28        0.0000000000
   29       -0.0000000000
   30       -0.0000000000
   31       -0.0000000000
   32       -0.0195556700
   33        0.0413032500
   34       -0.0000000000
   35       -0.0000000000
   36        0.0000000000
   37       -0.0000000000
   38        0.0000000000
   39       -0.0000000000
   40        0.0000000000
   41       -0.0000000000
   42        0.0000000000
   43        0.0000000000
   44       -0.0000000000
   45       -0.0000000000
   46       -0.0609600900
   47        0.1287529300
   48       -0.0000000000
   49        0.0453855900
   50       -0.0958582600
   51        0.0000000000
   52       -0.0065812500
   53        0.0139001700
   54       -0.0000000000
   55        0.3161948000
   56       -0.6678305100
   57        0.0000000000
   58        0.0000000000
   59        0.0000000000
   60        0.0151094300
   61       -0.0319124000
   62       -0.0000000000
   63        0.0000000000
   64        0.0000000000
   65        0.0000000000
   66       -0.0195556700
   67        0.0413032500
   68        0.0000000000
 Ene=          0.01125860
 Spin= Alpha
 Occup=        0.00000000
    1       -0.0000000000
    2       -0.0000000000
    3        0.0000000000
    4       -0.0000000000
    5        0.0000000000
    6        0.0000000000
    7        0.0000000000
    8       -0.0000000000
    9       -0.0000000000
   10       -0.0000000000
   11       -0.0000000000
   12        0.1287529300
   13        0.0609600900
   14       -0.0000000000
   15       -0.0958582600
   16       -0.0453855900
   17        0.0000000000
   18        0.0139001700
   19        0.0065812500
   20       -0.0000000000
   21       -0.6678305100
   22       -0.3161948000
   23       -0.0000000000
   24       -0.0000000000
   25       -0.0000000000
   26        0.0319124000
   27        0.0151094300
   28        0.0000000000
   29       -0.0000000000
   30       -0.0000000000
   31       -0.0000000000
   32       -0.0413032500
   33       -0.0195556700
   34       -0.0000000000
   35       -0.0000000000
   36        0.0000000000
   37       -0.0000000000
   38        0.0000000000
   39       -0.0000000000
   40        0.0000000000
   41       -0.0000000000
   42        0.0000000000
   43       -0.0000000000
   44        0.0000000000
   45       -0.0000000000
   46       -0.1287529300
   47       -0.0609600900
   48       -0.0000000000
   49        0.0958582600
   50        0.0453855900
   51        0.0000000000
   52       -0.0139001700
   53       -0.0065812500
   54       -0.0000000000
   55        0.6678305100
   56        0.3161948000
   57        0.0000000000
   58        0.0000000000
   59        0.0000000000
   60        0.0319124000
   61        0.0151094300
   62       -0.0000000000
   63        0.0000000000
   64        0.0000000000
   65        0.0000000000
   66       -0.0413032500
   67       -0.0195556700
   68        0.0000000000
 Ene=          0.01600220
 Spin= Alpha
 Occup=        0.00000000
    1       -0.0000000000
    2        0.0000000000
    3       -0.0000000000
    4        0.0000000000
    5       -0.0000000000
    6        0.0000000000
    7       -0.0000000000
    8        0.0000000000
    9        0.0000000000
   10       -0.0000000000
   11       -0.0000000000
   12       -0.0719174300
   13        0.0279660400
   14        0.0000000000
   15        0.2186061100
   16       -0.0850078600
   17       -0.0000000000
   18       -0.9089796200
   19        0.3534686900
   20        0.0000000000
   21        0.8890898400
   22       -0.3457342900
   23       -0.0000000000
   24        0.0000000000
   25       -0.0000000000
   26        0.0428477600
   27       -0.0166619100
   28        0.0000000000
   29        0.0000000000
   30        0.0000000000
   31        0.0000000000
   32       -0.0994125000
   33        0.0386578600
   34       -0.0000000000
   35        0.0000000000
   36       -0.0000000000
   37        0.0000000000
   38       -0.0000000000
   39        0.0000000000
   40       -0.0000000000
   41        0.0000000000
   42        0.0000000000
   43       -0.0000000000
   44        0.0000000000
   45        0.0000000000
   46       -0.0719174300
   47        0.0279660400
   48        0.0000000000
   49        0.2186061100
   50       -0.0850078600
   51       -0.0000000000
   52       -0.9089796200
   53        0.3534686900
   54       -0.0000000000
   55        0.8890898400
   56       -0.3457342900
   57       -0.0000000000
   58        0.0000000000
   59        0.0000000000
   60       -0.0428477600
   61        0.0166619100
   62       -0.0000000000
   63       -0.0000000000
   64       -0.0000000000
   65       -0.0000000000
   66        0.0994125000
   67       -0.0386578600
   68        0.0000000000
 Ene=          0.01600220
 Spin= Alpha
 Occup=        0.00000000
    1       -0.0000000000
    2        0.0000000000
    3       -0.0000000000
    4        0.0000000000
    5       -0.0000000000
    6        0.0000000000
    7       -0.0000000000
    8        0.0000000000
    9       -0.0000000000
   10        0.0000000000
   11        0.0000000000
   12        0.0279660400
   13        0.0719174300
   14        0.0000000000
   15       -0.0850078600
   16       -0.2186061100
   17       -0.0000000000
   18        0.3534686900
   19        0.9089796200
   20        0.0000000000
   21       -0.3457342900
   22       -0.8890898400
   23        0.0000000000
   24        0.0000000000
   25        0.0000000000
   26       -0.0166619100
   27       -0.0428477600
   28       -0.0000000000
   29        0.0000000000
   30        0.0000000000
   31        0.0000000000
   32        0.0386578600
   33        0.0994125000
   34        0.0000000000
   35       -0.0000000000
   36       -0.0000000000
   37        0.0000000000
   38       -0.0000000000
   39        0.0000000000
   40       -0.0000000000
   41        0.0000000000
   42       -0.0000000000
   43        0.0000000000
   44        0.0000000000
   45       -0.0000000000
   46        0.0279660400
   47        0.0719174300
   48        0.0000000000
   49       -0.0850078600
   50       -0.2186061100
   51       -0.0000000000
   52        0.3534686900
   53        0.9089796200
   54        0.0000000000
   55       -0.3457342900
   56       -0.8890898400
   57        0.0000000000
   58       -0.0000000000
   59       -0.0000000000
   60        0.0166619100
   61        0.0428477600
   62        0.0000000000
   63       -0.0000000000
   64       -0.0000000000
   65       -0.0000000000
   66       -0.0386578600
   67       -0.0994125000
   68       -0.0000000000
 Ene=          0.01659380
 Spin= Alpha
 Occup=        0.00000000
    1        0.2882417100
    2      -24.0524962000
    3        2.5296287500
    4       -1.3201100000
    5        0.4487541800
    6       -0.0499402800
    7        0.0384615100
    8       -0.0193780200
    9        0.0006109900
   10       -0.0002614100
   11       -0.0034105900
   12       -0.0000000000
   13       -0.0000000000
   14      -10.4665478500
   15        0.0000000000
   16        0.0000000000
   17        1.5137662100
   18       -0.0000000000
   19        0.0000000000
   20       -0.8207281200
   21        0.0000000000
   22       -0.0000000000
   23       -0.0374719400
   24       -0.0386639200
   25       -0.0386639200
   26       -0.0000000000
   27       -0.0000000000
   28       -0.0000000000
   29       -2.5193356500
   30       -0.1650977900
   31       -0.1650977900
   32        0.0000000000
   33        0.0000000000
   34        0.0000000000
   35       -0.2882417100
   36       24.0524962000
   37       -2.5296287500
   38        1.3201100000
   39       -0.4487541800
   40        0.0499402800
   41       -0.0384615100
   42        0.0193780200
   43       -0.0006109900
   44        0.0002614100
   45       -0.0034105900
   46        0.0000000000
   47        0.0000000000
   48      -10.4665478500
   49       -0.0000000000
   50       -0.0000000000
   51        1.5137662100
   52        0.0000000000
   53        0.0000000000
   54       -0.8207281200
   55       -0.0000000000
   56       -0.0000000000
   57        0.0374719400
   58        0.0386639200
   59        0.0386639200
   60       -0.0000000000
   61       -0.0000000000
   62        0.0000000000
   63        2.5193356500
   64        0.1650977900
   65        0.1650977900
   66        0.0000000000
   67        0.0000000000
   68       -0.0000000000
 Ene=          0.01821570
 Spin= Alpha
 Occup=        0.00000000
    1        0.1730698300
    2        0.0192057200
    3       -0.2079032500
    4        1.1857668500
    5       -0.7322854500
    6       -0.0223058400
    7       -0.0766517600
    8        0.0507100300
    9        0.0017065400
   10        0.0002161600
   11       -0.3559938700
   12       -0.0000000000
   13        0.0000000000
   14        0.0468195000
   15       -0.0000000000
   16       -0.0000000000
   17       -0.1728743000
   18        0.0000000000
   19        0.0000000000
   20       -0.3104048100
   21       -0.0000000000
   22       -0.0000000000
   23       -0.1380699400
   24       -0.0034190800
   25       -0.0034190800
   26       -0.0000000000
   27        0.0000000000
   28       -0.0000000000
   29       -0.0178497200
   30       -0.0009820800
   31       -0.0009820800
   32       -0.0000000000
   33       -0.0000000000
   34        0.0000000000
   35        0.1730698300
   36        0.0192057200
   37       -0.2079032500
   38        1.1857668500
   39       -0.7322854500
   40       -0.0223058400
   41       -0.0766517600
   42        0.0507100300
   43        0.0017065400
   44        0.0002161600
   45        0.3559938700
   46        0.0000000000
   47       -0.0000000000
   48       -0.0468195000
   49        0.0000000000
   50        0.0000000000
   51        0.1728743000
   52       -0.0000000000
   53       -0.0000000000
   54        0.3104048100
   55        0.0000000000
   56        0.0000000000
   57       -0.1380699400
   58       -0.0034190800
   59       -0.0034190800
   60       -0.0000000000
   61        0.0000000000
   62        0.0000000000
   63       -0.0178497200
   64       -0.0009820800
   65       -0.0009820800
   66       -0.0000000000
   67       -0.0000000000
   68       -0.0000000000
 Ene=          0.02061650
 Spin= Alpha
 Occup=        0.00000000
    1       -0.1627270700
    2       14.8820538300
    3       -2.7160384200
    4        2.1688024800
    5       -0.9494450200
    6       -0.0077635200
    7       -0.0872630000
    8        0.0559454100
    9        0.0015388000
   10        0.0002887000
   11       -0.0600754700
   12        0.0000000000
   13       -0.0000000000
   14        6.4239848900
   15       -0.0000000000
   16       -0.0000000000
   17       -1.2760268000
   18        0.0000000000
   19       -0.0000000000
   20       -0.2498182500
   21       -0.0000000000
   22        0.0000000000
   23       -0.0281891700
   24       -0.0336088800
   25       -0.0336088800
   26        0.0000000000
   27       -0.0000000000
   28        0.0000000000
   29        1.4318626100
   30        0.0137454700
   31        0.0137454700
   32       -0.0000000000
   33       -0.0000000000
   34       -0.0000000000
   35        0.1627270700
   36      -14.8820538300
   37        2.7160384200
   38       -2.1688024800
   39        0.9494450200
   40        0.0077635200
   41        0.0872630000
   42       -0.0559454100
   43       -0.0015388000
   44       -0.0002887000
   45       -0.0600754700
   46       -0.0000000000
   47        0.0000000000
   48        6.4239848900
   49        0.0000000000
   50        0.0000000000
   51       -1.2760268000
   52       -0.0000000000
   53        0.0000000000
   54       -0.2498182500
   55        0.0000000000
   56       -0.0000000000
   57        0.0281891700
   58        0.0336088800
   59        0.0336088800
   60        0.0000000000
   61       -0.0000000000
   62       -0.0000000000
   63       -1.4318626100
   64       -0.0137454700
   65       -0.0137454700
   66       -0.0000000000
   67       -0.0000000000
   68        0.0000000000
 Ene=          0.02255830
 Spin= Alpha
 Occup=        0.00000000
    1       -0.0000000000
    2        0.0000000000
    3        0.0000000000
    4       -0.0000000000
    5        0.0000000000
    6       -0.0000000000
    7        0.0000000000
    8       -0.0000000000
    9       -0.0000000000
   10       -0.0000000000
   11        0.0000000000
   12        4.0655296500
   13       -0.9860344600
   14        0.0000000000
   15       -0.9594929100
   16        0.2327109000
   17       -0.0000000000
   18        1.5447302900
   19       -0.3746516300
   20        0.0000000000
   21       -0.7762165300
   22        0.1882599100
   23        0.0000000000
   24        0.0000000000
   25        0.0000000000
   26        0.8794827800
   27       -0.2133056200
   28        0.0000000000
   29        0.0000000000
   30        0.0000000000
   31        0.0000000000
   32       -0.1552164200
   33        0.0376454600
   34       -0.0000000000
   35        0.0000000000
   36       -0.0000000000
   37        0.0000000000
   38        0.0000000000
   39       -0.0000000000
   40        0.0000000000
   41       -0.0000000000
   42        0.0000000000
   43       -0.0000000000
   44        0.0000000000
   45        0.0000000000
   46       -4.0655296500
   47        0.9860344600
   48        0.0000000000
   49        0.9594929100
   50       -0.2327109000
   51       -0.0000000000
   52       -1.5447302900
   53        0.3746516300
   54        0.0000000000
   55        0.7762165300
   56       -0.1882599100
   57       -0.0000000000
   58       -0.0000000000
   59       -0.0000000000
   60        0.8794827800
   61       -0.2133056200
   62       -0.0000000000
   63       -0.0000000000
   64       -0.0000000000
   65       -0.0000000000
   66       -0.1552164200
   67        0.0376454600
   68        0.0000000000
 Ene=          0.02255830
 Spin= Alpha
 Occup=        0.00000000
    1       -0.0000000000
    2        0.0000000000
    3       -0.0000000000
    4        0.0000000000
    5        0.0000000000
    6        0.0000000000
    7        0.0000000000
    8       -0.0000000000
    9       -0.0000000000
   10       -0.0000000000
   11       -0.0000000000
   12        0.9860344600
   13        4.0655296500
   14        0.0000000000
   15       -0.2327109000
   16       -0.9594929100