[Molden Format]
[Title]
 Molden2AIM, Version 3.1.0 (02/25/2015)           Time: Thu Oct 17 19:53:32 2024

[Atoms] AU
E+       1       4     0.00000000     0.00000000     0.00000000
E+       2       4    21.00000000     0.00000000     0.00000000
[GTO]
    1 0
 S   1 1.0
    0.1000000000D-03      0.1000000000D+01
 S   1 1.0
    0.3000000000D-03      0.1000000000D+01
 S   1 1.0
    0.9000000000D-03      0.1000000000D+01
 S   1 1.0
    0.2700000000D-02      0.1000000000D+01
 S   1 1.0
    0.8100000000D-02      0.1000000000D+01
 S   1 1.0
    0.2430000000D-01      0.1000000000D+01
 S   1 1.0
    0.7290000000D-01      0.1000000000D+01
 S   1 1.0
    0.2187000000D+00      0.1000000000D+01
 S   1 1.0
    0.6561000000D+00      0.1000000000D+01
 S   1 1.0
    0.1968300000D+01      0.1000000000D+01
 P   1 1.0
    0.1000000000D-03      0.1000000000D+01
 P   1 1.0
    0.3000000000D-03      0.1000000000D+01
 P   1 1.0
    0.9000000000D-03      0.1000000000D+01
 P   1 1.0
    0.2700000000D-02      0.1000000000D+01
 D   1 1.0
    0.1000000000D-03      0.1000000000D+01
 D   1 1.0
    0.3000000000D-03      0.1000000000D+01

    2 0
 S   1 1.0
    0.1000000000D-03      0.1000000000D+01
 S   1 1.0
    0.3000000000D-03      0.1000000000D+01
 S   1 1.0
    0.9000000000D-03      0.1000000000D+01
 S   1 1.0
    0.2700000000D-02      0.1000000000D+01
 S   1 1.0
    0.8100000000D-02      0.1000000000D+01
 S   1 1.0
    0.2430000000D-01      0.1000000000D+01
 S   1 1.0
    0.7290000000D-01      0.1000000000D+01
 S   1 1.0
    0.2187000000D+00      0.1000000000D+01
 S   1 1.0
    0.6561000000D+00      0.1000000000D+01
 S   1 1.0
    0.1968300000D+01      0.1000000000D+01
 P   1 1.0
    0.1000000000D-03      0.1000000000D+01
 P   1 1.0
    0.3000000000D-03      0.1000000000D+01
 P   1 1.0
    0.9000000000D-03      0.1000000000D+01
 P   1 1.0
    0.2700000000D-02      0.1000000000D+01
 D   1 1.0
    0.1000000000D-03      0.1000000000D+01
 D   1 1.0
    0.3000000000D-03      0.1000000000D+01


[MO]
 Ene=         -0.00411844
 Spin= Alpha
 Occup=        1.00000000
    1       -0.0571395100
    2        0.0594368100
    3       -0.0397290400
    4       -0.2245611300
    5       -0.2171928400
    6       -0.1899780300
    7       -0.1126940800
    8        0.0922550500
    9        0.0064414200
   10       -0.0001100300
   11        0.2885784800
   12       -0.0000000000
   13       -0.0000000000
   14       -0.1289576600
   15        0.0000000000
   16        0.0000000000
   17        0.0100466000
   18        0.0000000000
   19        0.0000000000
   20       -0.0221762700
   21       -0.0000000000
   22       -0.0000000000
   23        0.0528059400
   24       -0.0005060300
   25       -0.0005060300
   26       -0.0000000000
   27       -0.0000000000
   28        0.0000000000
   29       -0.0434590500
   30       -0.0035763300
   31       -0.0035763300
   32        0.0000000000
   33        0.0000000000
   34       -0.0000000000
   35       -0.0571395100
   36        0.0594368100
   37       -0.0397290400
   38       -0.2245611300
   39       -0.2171928400
   40       -0.1899780300
   41       -0.1126940800
   42        0.0922550500
   43        0.0064414200
   44       -0.0001100300
   45       -0.2885784800
   46        0.0000000000
   47        0.0000000000
   48        0.1289576600
   49       -0.0000000000
   50       -0.0000000000
   51       -0.0100466000
   52        0.0000000000
   53        0.0000000000
   54        0.0221762700
   55       -0.0000000000
   56       -0.0000000000
   57        0.0528059400
   58       -0.0005060300
   59       -0.0005060300
   60       -0.0000000000
   61        0.0000000000
   62       -0.0000000000
   63       -0.0434590500
   64       -0.0035763300
   65       -0.0035763300
   66        0.0000000000
   67       -0.0000000000
   68        0.0000000000
 Ene=         -0.00112281
 Spin= Alpha
 Occup=        0.00000000
    1       -0.0008580600
    2        0.0009889500
    3        0.6469376200
    4        0.3026585000
    5        0.2627890800
    6        0.2130879700
    7        0.1186799000
    8       -0.0982476700
    9       -0.0071127900
   10        0.0001494300
   11        0.0074147100
   12       -0.0000000000
   13        0.0000000000
   14       -0.0030009900
   15        0.0000000000
   16       -0.0000000000
   17        0.1803015400
   18       -0.0000000000
   19        0.0000000000
   20       -0.0724148500
   21        0.0000000000
   22       -0.0000000000
   23        0.0080001200
   24        0.0180681600
   25        0.0180681600
   26       -0.0000000000
   27        0.0000000000
   28       -0.0000000000
   29        0.0237327500
   30        0.0074905200
   31        0.0074905200
   32        0.0000000000
   33       -0.0000000000
   34        0.0000000000
   35        0.0008580600
   36       -0.0009889500
   37       -0.6469376200
   38       -0.3026585000
   39       -0.2627890800
   40       -0.2130879700
   41       -0.1186799000
   42        0.0982476700
   43        0.0071127900
   44       -0.0001494300
   45        0.0074147100
   46        0.0000000000
   47       -0.0000000000
   48       -0.0030009900
   49       -0.0000000000
   50        0.0000000000
   51        0.1803015400
   52        0.0000000000
   53       -0.0000000000
   54       -0.0724148500
   55        0.0000000000
   56        0.0000000000
   57       -0.0080001200
   58       -0.0180681600
   59       -0.0180681600
   60       -0.0000000000
   61        0.0000000000
   62        0.0000000000
   63       -0.0237327500
   64       -0.0074905200
   65       -0.0074905200
   66        0.0000000000
   67       -0.0000000000
   68       -0.0000000000
 Ene=          0.00341562
 Spin= Alpha
 Occup=        0.00000000
    1        0.9131136100
    2       -0.1575248500
    3       -1.1541271400
    4        0.8329370300
    5       -0.0608237700
    6        0.1176698500
    7        0.0248345200
    8       -0.0280758600
    9       -0.0033236200
   10        0.0002254200
   11       -3.6941158100
   12        0.0000000000
   13        0.0000000000
   14        1.2629972800
   15       -0.0000000000
   16       -0.0000000000
   17       -0.4470397800
   18        0.0000000000
   19        0.0000000000
   20        0.0999304700
   21       -0.0000000000
   22       -0.0000000000
   23       -0.6960278100
   24       -0.0191895400
   25       -0.0191895400
   26        0.0000000000
   27        0.0000000000
   28        0.0000000000
   29        0.2864159600
   30       -0.0794421700
   31       -0.0794421700
   32       -0.0000000000
   33       -0.0000000000
   34       -0.0000000000
   35        0.9131136100
   36       -0.1575248500
   37       -1.1541271400
   38        0.8329370300
   39       -0.0608237700
   40        0.1176698500
   41        0.0248345200
   42       -0.0280758600
   43       -0.0033236200
   44        0.0002254200
   45        3.6941158100
   46       -0.0000000000
   47       -0.0000000000
   48       -1.2629972800
   49        0.0000000000
   50        0.0000000000
   51        0.4470397800
   52       -0.0000000000
   53       -0.0000000000
   54       -0.0999304700
   55        0.0000000000
   56        0.0000000000
   57       -0.6960278100
   58       -0.0191895400
   59       -0.0191895400
   60        0.0000000000
   61        0.0000000000
   62       -0.0000000000
   63        0.2864159600
   64       -0.0794421700
   65       -0.0794421700
   66       -0.0000000000
   67       -0.0000000000
   68        0.0000000000
 Ene=          0.00405288
 Spin= Alpha
 Occup=        0.00000000
    1       -0.0000000000
    2       -0.0000000000
    3        0.0000000000
    4       -0.0000000000
    5       -0.0000000000
    6       -0.0000000000
    7        0.0000000000
    8       -0.0000000000
    9        0.0000000000
   10        0.0000000000
   11        0.0000000000
   12       -0.0297317800
   13       -0.0002947600
   14        0.0000000000
   15        0.1169560800
   16        0.0011595100
   17        0.0000000000
   18       -0.4943453000
   19       -0.0049009900
   20       -0.0000000000
   21       -0.1341914300
   22       -0.0013303900
   23        0.0000000000
   24       -0.0000000000
   25       -0.0000000000
   26       -0.0535765800
   27       -0.0005311600
   28        0.0000000000
   29        0.0000000000
   30       -0.0000000000
   31       -0.0000000000
   32        0.0122624500
   33        0.0001215700
   34       -0.0000000000
   35       -0.0000000000
   36       -0.0000000000
   37       -0.0000000000
   38       -0.0000000000
   39        0.0000000000
   40       -0.0000000000
   41       -0.0000000000
   42        0.0000000000
   43       -0.0000000000
   44       -0.0000000000
   45       -0.0000000000
   46       -0.0297317800
   47       -0.0002947600
   48       -0.0000000000
   49        0.1169560800
   50        0.0011595100
   51        0.0000000000
   52       -0.4943453000
   53       -0.0049009900
   54        0.0000000000
   55       -0.1341914300
   56       -0.0013303900
   57        0.0000000000
   58       -0.0000000000
   59       -0.0000000000
   60        0.0535765800
   61        0.0005311600
   62       -0.0000000000
   63        0.0000000000
   64       -0.0000000000
   65       -0.0000000000
   66       -0.0122624500
   67       -0.0001215700
   68        0.0000000000
 Ene=          0.00405288
 Spin= Alpha
 Occup=        0.00000000
    1       -0.0000000000
    2        0.0000000000
    3       -0.0000000000
    4        0.0000000000
    5       -0.0000000000
    6        0.0000000000
    7        0.0000000000
    8       -0.0000000000
    9       -0.0000000000
   10        0.0000000000
   11        0.0000000000
   12        0.0002947600
   13       -0.0297317900
   14       -0.0000000000
   15       -0.0011595100
   16        0.1169560800
   17       -0.0000000000
   18        0.0049009900
   19       -0.4943453000
   20        0.0000000000
   21        0.0013303900
   22       -0.1341914300
   23        0.0000000000
   24       -0.0000000000
   25       -0.0000000000
   26        0.0005311600
   27       -0.0535765800
   28        0.0000000000
   29       -0.0000000000
   30       -0.0000000000
   31       -0.0000000000
   32       -0.0001215700
   33        0.0122624500
   34       -0.0000000000
   35       -0.0000000000
   36        0.0000000000
   37        0.0000000000
   38       -0.0000000000
   39        0.0000000000
   40        0.0000000000
   41        0.0000000000
   42       -0.0000000000
   43       -0.0000000000
   44       -0.0000000000
   45       -0.0000000000
   46        0.0002947600
   47       -0.0297317800
   48        0.0000000000
   49       -0.0011595100
   50        0.1169560800
   51       -0.0000000000
   52        0.0049009900
   53       -0.4943453000
   54        0.0000000000
   55        0.0013303900
   56       -0.1341914300
   57        0.0000000000
   58       -0.0000000000
   59       -0.0000000000
   60       -0.0005311600
   61        0.0535765800
   62       -0.0000000000
   63       -0.0000000000
   64       -0.0000000000
   65       -0.0000000000
   66        0.0001215700
   67       -0.0122624500
   68        0.0000000000
 Ene=          0.00574887
 Spin= Alpha
 Occup=        0.00000000
    1        0.0145220400
    2        0.0040226300
    3       -7.1390117000
    4        0.5650543600
    5        0.3083886100
    6        0.0733655200
    7        0.0731544300
    8       -0.0540643000
    9       -0.0028603600
   10       -0.0000738700
   11       -0.1242784100
   12        0.0000000000
   13       -0.0000000000
   14       -0.0302092300
   15       -0.0000000000
   16        0.0000000000
   17       -1.7261547300
   18        0.0000000000
   19       -0.0000000000
   20        0.2544305300
   21        0.0000000000
   22       -0.0000000000
   23       -0.1776136700
   24       -0.2640802800
   25       -0.2640802800
   26        0.0000000000
   27       -0.0000000000
   28        0.0000000000
   29       -0.4254537300
   30       -0.2755561500
   31       -0.2755561500
   32       -0.0000000000
   33        0.0000000000
   34       -0.0000000000
   35       -0.0145220400
   36       -0.0040226300
   37        7.1390117000
   38       -0.5650543600
   39       -0.3083886100
   40       -0.0733655200
   41       -0.0731544300
   42        0.0540643000
   43        0.0028603600
   44        0.0000738700
   45       -0.1242784100
   46       -0.0000000000
   47        0.0000000000
   48       -0.0302092300
   49        0.0000000000
   50       -0.0000000000
   51       -1.7261547300
   52       -0.0000000000
   53        0.0000000000
   54        0.2544305300
   55       -0.0000000000
   56        0.0000000000
   57        0.1776136700
   58        0.2640802800
   59        0.2640802800
   60        0.0000000000
   61       -0.0000000000
   62        0.0000000000
   63        0.4254537300
   64        0.2755561500
   65        0.2755561500
   66       -0.0000000000
   67        0.0000000000
   68       -0.0000000000
 Ene=          0.00675248
 Spin= Alpha
 Occup=        0.00000000
    1        1.5700269100
    2       -1.0028978500
    3       -0.0313635100
    4        0.8127116700
    5       -0.2704014500
    6        0.0427321700
    7       -0.0262841400
    8        0.0126764900
    9       -0.0005767300
   10        0.0001954200
   11       -8.2298188900
   12        0.0000000000
   13        0.0000000000
   14        2.3364782100
   15       -0.0000000000
   16       -0.0000000000
   17       -0.6714555700
   18        0.0000000000
   19        0.0000000000
   20       -0.5303153500
   21        0.0000000000
   22        0.0000000000
   23       -1.4873693000
   24        0.0232998900
   25        0.0232998900
   26        0.0000000000
   27        0.0000000000
   28        0.0000000000
   29        0.7762639200
   30        0.0972393100
   31        0.0972393100
   32       -0.0000000000
   33       -0.0000000000
   34        0.0000000000
   35        1.5700269100
   36       -1.0028978500
   37       -0.0313635100
   38        0.8127116700
   39       -0.2704014500
   40        0.0427321700
   41       -0.0262841400
   42        0.0126764900
   43       -0.0005767300
   44        0.0001954200
   45        8.2298188900
   46       -0.0000000000
   47       -0.0000000000
   48       -2.3364782100
   49        0.0000000000
   50        0.0000000000
   51        0.6714555700
   52       -0.0000000000
   53       -0.0000000000
   54        0.5303153500
   55       -0.0000000000
   56       -0.0000000000
   57       -1.4873693000
   58        0.0232998900
   59        0.0232998900
   60        0.0000000000
   61        0.0000000000
   62       -0.0000000000
   63        0.7762639200
   64        0.0972393100
   65        0.0972393100
   66       -0.0000000000
   67       -0.0000000000
   68       -0.0000000000
 Ene=          0.00707371
 Spin= Alpha
 Occup=        0.00000000
    1        0.0000000000
    2        0.0000000000
    3       -0.0000000000
    4        0.0000000000
    5       -0.0000000000
    6        0.0000000000
    7       -0.0000000000
    8        0.0000000000
    9       -0.0000000000
   10        0.0000000000
   11        0.0000000000
   12        1.9341052600
   13      -17.3416288900
   14        0.0000000000
   15       -0.4308116400
   16        3.8627554200
   17       -0.0000000000
   18        0.1095566200
   19       -0.9823096800
   20       -0.0000000000
   21        0.0691627600
   22       -0.6201291200
   23        0.0000000000
   24        0.0000000000
   25        0.0000000000
   26        0.2027801600
   27       -1.8181731600
   28        0.0000000000
   29        0.0000000000
   30        0.0000000000
   31        0.0000000000
   32       -0.0710007100
   33        0.6366085200
   34       -0.0000000000
   35       -0.0000000000
   36       -0.0000000000
   37        0.0000000000
   38        0.0000000000
   39        0.0000000000
   40        0.0000000000
   41        0.0000000000
   42       -0.0000000000
   43       -0.0000000000
   44        0.0000000000
   45        0.0000000000
   46       -1.9341052600
   47       17.3416288900
   48        0.0000000000
   49        0.4308116400
   50       -3.8627554200
   51       -0.0000000000
   52       -0.1095566200
   53        0.9823096800
   54        0.0000000000
   55       -0.0691627600
   56        0.6201291200
   57       -0.0000000000
   58       -0.0000000000
   59       -0.0000000000
   60        0.2027801600
   61       -1.8181731600
   62       -0.0000000000
   63       -0.0000000000
   64       -0.0000000000
   65       -0.0000000000
   66       -0.0710007100
   67        0.6366085200
   68        0.0000000000
 Ene=          0.00707371
 Spin= Alpha
 Occup=        0.00000000
    1       -0.0000000000
    2       -0.0000000000
    3        0.0000000000
    4       -0.0000000000
    5        0.0000000000
    6       -0.0000000000
    7        0.0000000000
    8       -0.0000000000
    9        0.0000000000
   10        0.0000000000
   11       -0.0000000000
   12       17.3416288800
   13        1.9341052600
   14       -0.0000000000
   15       -3.8627554200
   16       -0.4308116400
   17        0.0000000000
   18        0.9823096800
   19        0.1095566200
   20        0.0000000000
   21        0.6201291200
   22        0.0691627600
   23       -0.0000000000
   24        0.0000000000
   25       -0.0000000000
   26        1.8181731600
   27        0.2027801600
   28        0.0000000000
   29       -0.0000000000
   30        0.0000000000
   31        0.0000000000
   32       -0.6366085200
   33       -0.0710007100
   34       -0.0000000000
   35        0.0000000000
   36        0.0000000000
   37        0.0000000000
   38       -0.0000000000
   39        0.0000000000
   40       -0.0000000000
   41        0.0000000000
   42       -0.0000000000
   43        0.0000000000
   44       -0.0000000000
   45        0.0000000000
   46      -17.3416288800
   47       -1.9341052600
   48       -0.0000000000
   49        3.8627554200
   50        0.4308116400
   51       -0.0000000000
   52       -0.9823096800
   53       -0.1095566200
   54       -0.0000000000
   55       -0.6201291200
   56       -0.0691627600
   57       -0.0000000000
   58        0.0000000000
   59        0.0000000000
   60        1.8181731600
   61        0.2027801600
   62       -0.0000000000
   63        0.0000000000
   64        0.0000000000
   65        0.0000000000
   66       -0.6366085200
   67       -0.0710007100
   68        0.0000000000
 Ene=          0.01033630
 Spin= Alpha
 Occup=        0.00000000
    1       -0.0000000000
    2        0.0000000000
    3        0.0000000000
    4        0.0000000000
    5        0.0000000000
    6        0.0000000000
    7        0.0000000000
    8       -0.0000000000
    9       -0.0000000000
   10       -0.0000000000
   11        0.0000000000
   12       -0.0397351800
   13        0.0056537500
   14       -0.0000000000
   15        0.1556969400
   16       -0.0221534400
   17        0.0000000000
   18       -0.7747186400
   19        0.1102313300
   20        0.0000000000
   21        0.8517021200
   22       -0.1211849700
   23        0.0000000000
   24       -0.0000000000
   25       -0.0000000000
   26       -0.0561471000
   27        0.0079889300
   28        0.0000000000
   29       -0.0000000000
   30       -0.0000000000
   31       -0.0000000000
   32        0.0006427400
   33       -0.0000914500
   34       -0.0000000000
   35       -0.0000000000
   36        0.0000000000
   37       -0.0000000000
   38       -0.0000000000
   39       -0.0000000000
   40        0.0000000000
   41       -0.0000000000
   42        0.0000000000
   43       -0.0000000000
   44        0.0000000000
   45       -0.0000000000
   46       -0.0397351800
   47        0.0056537400
   48        0.0000000000
   49        0.1556969400
   50       -0.0221534400
   51        0.0000000000
   52       -0.7747186400
   53        0.1102313300
   54        0.0000000000
   55        0.8517021200
   56       -0.1211849700
   57        0.0000000000
   58       -0.0000000000
   59       -0.0000000000
   60        0.0561471000
   61       -0.0079889300
   62       -0.0000000000
   63       -0.0000000000
   64       -0.0000000000
   65       -0.0000000000
   66       -0.0006427400
   67        0.0000914500
   68        0.0000000000
 Ene=          0.01033630
 Spin= Alpha
 Occup=        0.00000000
    1       -0.0000000000
    2        0.0000000000
    3       -0.0000000000
    4       -0.0000000000
    5       -0.0000000000
    6       -0.0000000000
    7       -0.0000000000
    8        0.0000000000
    9        0.0000000000
   10        0.0000000000
   11        0.0000000000
   12       -0.0056537400
   13       -0.0397351800
   14       -0.0000000000
   15        0.0221534400
   16        0.1556969400
   17       -0.0000000000
   18       -0.1102313300
   19       -0.7747186400
   20       -0.0000000000
   21        0.1211849700
   22        0.8517021200
   23        0.0000000000
   24       -0.0000000000
   25       -0.0000000000
   26       -0.0079889300
   27       -0.0561471000
   28        0.0000000000
   29       -0.0000000000
   30       -0.0000000000
   31       -0.0000000000
   32        0.0000914500
   33        0.0006427400
   34       -0.0000000000
   35       -0.0000000000
   36        0.0000000000
   37        0.0000000000
   38        0.0000000000
   39        0.0000000000
   40        0.0000000000
   41        0.0000000000
   42       -0.0000000000
   43       -0.0000000000
   44        0.0000000000
   45       -0.0000000000
   46       -0.0056537400
   47       -0.0397351800
   48        0.0000000000
   49        0.0221534400
   50        0.1556969400
   51       -0.0000000000
   52       -0.1102313300
   53       -0.7747186400
   54       -0.0000000000
   55        0.1211849700
   56        0.8517021200
   57        0.0000000000
   58       -0.0000000000
   59        0.0000000000
   60        0.0079889300
   61        0.0561471000
   62       -0.0000000000
   63       -0.0000000000
   64       -0.0000000000
   65       -0.0000000000
   66       -0.0000914500
   67       -0.0006427400
   68        0.0000000000
 Ene=          0.01052230
 Spin= Alpha
 Occup=        0.00000000
    1        0.0060226000
    2       -0.0433394900
    3      -14.6705520300
    4       -1.5197789200
    5       -0.0207601500
    6       -0.0440067900
    7       -0.0170670300
    8        0.0154434100
    9        0.0013697300
   10       -0.0000567000
   11       -0.0529748400
   12        0.0000000000
   13       -0.0000000000
   14        0.1342413500
   15       -0.0000000000
   16        0.0000000000
   17       -4.3673887200
   18        0.0000000000
   19       -0.0000000000
   20       -2.2356791200
   21       -0.0000000000
   22        0.0000000000
   23        0.0198305100
   24       -0.1962834800
   25       -0.1962834800
   26        0.0000000000
   27       -0.0000000000
   28        0.0000000000
   29       -0.1467326400
   30        0.1813015200
   31        0.1813015200
   32       -0.0000000000
   33        0.0000000000
   34       -0.0000000000
   35       -0.0060226000
   36        0.0433394900
   37       14.6705520300
   38        1.5197789200
   39        0.0207601500
   40        0.0440067900
   41        0.0170670300
   42       -0.0154434100
   43       -0.0013697300
   44        0.0000567000
   45       -0.0529748400
   46       -0.0000000000
   47        0.0000000000
   48        0.1342413500
   49        0.0000000000
   50       -0.0000000000
   51       -4.3673887200
   52       -0.0000000000
   53        0.0000000000
   54       -2.2356791200
   55        0.0000000000
   56       -0.0000000000
   57       -0.0198305100
   58        0.1962834800
   59        0.1962834800
   60        0.0000000000
   61       -0.0000000000
   62       -0.0000000000
   63        0.1467326400
   64       -0.1813015200
   65       -0.1813015200
   66       -0.0000000000
   67        0.0000000000
   68        0.0000000000
 Ene=          0.01323100
 Spin= Alpha
 Occup=        0.00000000
    1        0.4984791700
    2       -0.4214542600
    3       -0.1335607800
    4        1.5796964200
    5       -1.3081902300
    6        0.0914616000
    7       -0.1414575600
    8        0.0808428600
    9        0.0000221300
   10        0.0007226400
   11       -4.5379751600
   12        0.0000000000
   13       -0.0000000000
   14        0.1885384900
   15       -0.0000000000
   16       -0.0000000000
   17       -0.5171937300
   18        0.0000000000
   19        0.0000000000
   20        0.3410387400
   21       -0.0000000000
   22       -0.0000000000
   23       -0.7616909900
   24        0.0670124200
   25        0.0670124200
   26        0.0000000000
   27       -0.0000000000
   28        0.0000000000
   29        0.2321544000
   30        0.2179248700
   31        0.2179248700
   32       -0.0000000000
   33       -0.0000000000
   34        0.0000000000
   35        0.4984791700
   36       -0.4214542600
   37       -0.1335607800
   38        1.5796964200
   39       -1.3081902300
   40        0.0914616000
   41       -0.1414575600
   42        0.0808428600
   43        0.0000221300
   44        0.0007226400
   45        4.5379751600
   46       -0.0000000000
   47        0.0000000000
   48       -0.1885384900
   49        0.0000000000
   50        0.0000000000
   51        0.5171937300
   52       -0.0000000000
   53       -0.0000000000
   54       -0.3410387400
   55        0.0000000000
   56        0.0000000000
   57       -0.7616909900
   58        0.0670124200
   59        0.0670124200
   60        0.0000000000
   61       -0.0000000000
   62       -0.0000000000
   63        0.2321544000
   64        0.2179248700
   65        0.2179248700
   66       -0.0000000000
   67       -0.0000000000
   68       -0.0000000000
 Ene=          0.01551250
 Spin= Alpha
 Occup=        0.00000000
    1        0.0000000000
    2        0.0000000000
    3       -0.0000000000
    4       -0.0000000000
    5        0.0000000000
    6       -0.0000000000
    7        0.0000000000
    8       -0.0000000000
    9        0.0000000000
   10       -0.0000000000
   11        0.0000000000
   12        1.1097170400
   13      -34.5138353600
   14        0.0000000000
   15       -0.2343969900
   16        7.2900917900
   17        0.0000000000
   18        0.0780508300
   19       -2.4274959600
   20       -0.0000000000
   21       -0.0412310700
   22        1.2823470300
   23        0.0000000000
   24        0.0000000000
   25        0.0000000000
   26        0.1162999800
   27       -3.6171007800
   28        0.0000000000
   29        0.0000000000
   30        0.0000000000
   31        0.0000000000
   32       -0.0381427000
   33        1.1862942300
   34       -0.0000000000
   35       -0.0000000000
   36       -0.0000000000
   37        0.0000000000
   38        0.0000000000
   39       -0.0000000000
   40        0.0000000000
   41       -0.0000000000
   42        0.0000000000
   43       -0.0000000000
   44        0.0000000000
   45        0.0000000000
   46       -1.1097170400
   47       34.5138353600
   48        0.0000000000
   49        0.2343969900
   50       -7.2900917900
   51       -0.0000000000
   52       -0.0780508300
   53        2.4274959600
   54        0.0000000000
   55        0.0412310700
   56       -1.2823470300
   57        0.0000000000
   58       -0.0000000000
   59       -0.0000000000
   60        0.1162999800
   61       -3.6171007800
   62       -0.0000000000
   63       -0.0000000000
   64       -0.0000000000
   65       -0.0000000000
   66       -0.0381427000
   67        1.1862942300
   68        0.0000000000
 Ene=          0.01551250
 Spin= Alpha
 Occup=        0.00000000
    1        0.0000000000
    2        0.0000000000
    3       -0.0000000000
    4       -0.0000000000
    5        0.0000000000
    6       -0.0000000000
    7        0.0000000000
    8       -0.0000000000
    9        0.0000000000
   10       -0.0000000000
   11        0.0000000000
   12      -34.5138353600
   13       -1.1097170400
   14        0.0000000000
   15        7.2900917900
   16        0.2343969900
   17        0.0000000000
   18       -2.4274959600
   19       -0.0780508300
   20       -0.0000000000
   21        1.2823470300
   22        0.0412310700
   23        0.0000000000
   24        0.0000000000
   25        0.0000000000
   26       -3.6171007800
   27       -0.1162999800
   28       -0.0000000000
   29       -0.0000000000
   30        0.0000000000
   31       -0.0000000000
   32        1.1862942300
   33        0.0381427000
   34        0.0000000000
   35       -0.0000000000
   36       -0.0000000000
   37       -0.0000000000
   38        0.0000000000
   39       -0.0000000000
   40        0.0000000000
   41       -0.0000000000
   42        0.0000000000
   43       -0.0000000000
   44        0.0000000000
   45       -0.0000000000
   46       34.5138353600
   47        1.1097170400
   48        0.0000000000
   49       -7.2900917900
   50       -0.2343969900
   51       -0.0000000000
   52        2.4274959600
   53        0.0780508300
   54        0.0000000000
   55       -1.2823470300
   56       -0.0412310700
   57        0.0000000000
   58       -0.0000000000
   59       -0.0000000000
   60       -3.6171007800
   61       -0.1162999800
   62        0.0000000000
   63       -0.0000000000
   64       -0.0000000000
   65       -0.0000000000
   66        1.1862942300
   67        0.0381427000
   68       -0.0000000000
 Ene=          0.01558130
 Spin= Alpha
 Occup=        0.00000000
    1       -0.0165804300
    2       -0.0584653800
    3       -0.5640097600
    4       -3.6223425600
    5        1.2838975500
    6       -0.1085514000
    7        0.1209306000
    8       -0.0661871900
    9        0.0005978800
   10       -0.0006798700
   11        0.1396414900
   12        0.0000000000
   13        0.0000000000
   14        0.2456315300
   15       -0.0000000000
   16       -0.0000000000