 Molden2AIM, Version 3.1.0 (02/25/2015)           Time: Thu Oct 17 19:56:02 2024
GAUSSIAN             68 MOL ORBITALS     68 PRIMITIVES        2 NUCLEI
  Be   1    (CENTRE  1)   0.00000000  0.00000000  0.00000000  CHARGE =  4.0
  Be   2    (CENTRE  2)  54.00000000  0.00000000  0.00000000  CHARGE =  4.0
CENTRE ASSIGNMENTS    1  1  1  1  1  1  1  1  1  1  1  1  1  1  1  1  1  1  1  1
CENTRE ASSIGNMENTS    1  1  1  1  1  1  1  1  1  1  1  1  1  1  2  2  2  2  2  2
CENTRE ASSIGNMENTS    2  2  2  2  2  2  2  2  2  2  2  2  2  2  2  2  2  2  2  2
CENTRE ASSIGNMENTS    2  2  2  2  2  2  2  2
TYPE ASSIGNMENTS      1  1  1  1  1  1  1  1  1  1  2  3  4  2  3  4  2  3  4  2
TYPE ASSIGNMENTS      3  4  5  6  7  8  9 10  5  6  7  8  9 10  1  1  1  1  1  1
TYPE ASSIGNMENTS      1  1  1  1  2  3  4  2  3  4  2  3  4  2  3  4  5  6  7  8
TYPE ASSIGNMENTS      9 10  5  6  7  8  9 10
EXPONENTS  0.1000000D-03 0.3000000D-03 0.9000000D-03 0.2700000D-02 0.8100000D-02
EXPONENTS  0.2430000D-01 0.7290000D-01 0.2187000D+00 0.6561000D+00 0.1968300D+01
EXPONENTS  0.1000000D-03 0.1000000D-03 0.1000000D-03 0.3000000D-03 0.3000000D-03
EXPONENTS  0.3000000D-03 0.9000000D-03 0.9000000D-03 0.9000000D-03 0.2700000D-02
EXPONENTS  0.2700000D-02 0.2700000D-02 0.1000000D-03 0.1000000D-03 0.1000000D-03
EXPONENTS  0.1000000D-03 0.1000000D-03 0.1000000D-03 0.3000000D-03 0.3000000D-03
EXPONENTS  0.3000000D-03 0.3000000D-03 0.3000000D-03 0.3000000D-03 0.1000000D-03
EXPONENTS  0.3000000D-03 0.9000000D-03 0.2700000D-02 0.8100000D-02 0.2430000D-01
EXPONENTS  0.7290000D-01 0.2187000D+00 0.6561000D+00 0.1968300D+01 0.1000000D-03
EXPONENTS  0.1000000D-03 0.1000000D-03 0.3000000D-03 0.3000000D-03 0.3000000D-03
EXPONENTS  0.9000000D-03 0.9000000D-03 0.9000000D-03 0.2700000D-02 0.2700000D-02
EXPONENTS  0.2700000D-02 0.1000000D-03 0.1000000D-03 0.1000000D-03 0.1000000D-03
EXPONENTS  0.1000000D-03 0.1000000D-03 0.3000000D-03 0.3000000D-03 0.3000000D-03
EXPONENTS  0.3000000D-03 0.3000000D-03 0.3000000D-03
MO    1     MO 0.0        OCC NO =    1.0000000  ORB. ENERGY =    0.002533
 -0.18125584D-03 -0.24818750D-03  0.15304415D-02  0.86547819D-03  0.30345992D-02
  0.58121709D-02  0.82094903D-02 -0.15154727D-01 -0.23597272D-02  0.76970640D-04
  0.32865314D-05 -0.00000000D+00 -0.00000000D+00 -0.43262492D-05  0.00000000D+00
 -0.00000000D+00  0.30245488D-04 -0.00000000D+00  0.00000000D+00  0.16896924D-03
  0.00000000D+00 -0.00000000D+00  0.20458507D-07  0.31800709D-08  0.31800709D-08
 -0.00000000D+00 -0.00000000D+00 -0.00000000D+00  0.66971620D-07  0.74042010D-07
  0.74042010D-07  0.00000000D+00 -0.00000000D+00  0.00000000D+00 -0.18125584D-03
 -0.24818750D-03  0.15304415D-02  0.86547819D-03  0.30345992D-02  0.58121709D-02
  0.82094903D-02 -0.15154727D-01 -0.23597272D-02  0.76970640D-04 -0.32865314D-05
  0.00000000D+00  0.00000000D+00  0.43262492D-05 -0.00000000D+00  0.00000000D+00
 -0.30245488D-04 -0.00000000D+00 -0.00000000D+00 -0.16896924D-03  0.00000000D+00
  0.00000000D+00  0.20458507D-07  0.31800709D-08  0.31800709D-08  0.00000000D+00
 -0.00000000D+00  0.00000000D+00  0.66971620D-07  0.74042010D-07  0.74042010D-07
  0.00000000D+00 -0.00000000D+00 -0.00000000D+00
MO    2     MO 0.0        OCC NO =    0.0000000  ORB. ENERGY =    0.003448
  0.14855619D-04 -0.19385018D-02 -0.26245584D-04 -0.32762539D-02 -0.29294983D-02
 -0.86303010D-02 -0.10097663D-01  0.19454914D-01  0.33691120D-02 -0.20888309D-03
 -0.41525114D-06  0.00000000D+00  0.00000000D+00 -0.40120639D-04 -0.00000000D+00
 -0.00000000D+00  0.28604165D-04 -0.00000000D+00  0.00000000D+00 -0.24011370D-03
  0.00000000D+00 -0.00000000D+00 -0.39070405D-08 -0.33161147D-08 -0.33161147D-08
  0.00000000D+00  0.00000000D+00 -0.00000000D+00 -0.28325717D-06 -0.62256977D-07
 -0.62256977D-07 -0.00000000D+00  0.00000000D+00  0.00000000D+00 -0.14855619D-04
  0.19385018D-02  0.26245584D-04  0.32762539D-02  0.29294983D-02  0.86303010D-02
  0.10097663D-01 -0.19454914D-01 -0.33691120D-02  0.20888309D-03 -0.41525114D-06
 -0.00000000D+00 -0.00000000D+00 -0.40120639D-04  0.00000000D+00 -0.00000000D+00
  0.28604165D-04 -0.00000000D+00  0.00000000D+00 -0.24011370D-03  0.00000000D+00
 -0.00000000D+00  0.39070405D-08  0.33161147D-08  0.33161147D-08  0.00000000D+00
  0.00000000D+00  0.00000000D+00  0.28325717D-06  0.62256977D-07  0.62256977D-07
 -0.00000000D+00 -0.00000000D+00 -0.00000000D+00
MO    3     MO 0.0        OCC NO =    0.0000000  ORB. ENERGY =    0.006485
  0.40906118D-03  0.23771887D-03 -0.32835336D-02  0.58616289D-02  0.16176674D-02
  0.82498943D-02  0.74245173D-02 -0.15323243D-01 -0.30655734D-02  0.29567195D-03
 -0.10998532D-04  0.00000000D+00 -0.00000000D+00  0.16046752D-04 -0.00000000D+00
  0.00000000D+00 -0.11801020D-03  0.00000000D+00 -0.00000000D+00  0.17419278D-03
 -0.00000000D+00  0.00000000D+00 -0.63138347D-07 -0.38805197D-08 -0.38805197D-08
  0.00000000D+00 -0.00000000D+00  0.00000000D+00 -0.17309038D-07 -0.86191703D-07
 -0.86191703D-07 -0.00000000D+00  0.00000000D+00 -0.00000000D+00  0.40906118D-03
  0.23771887D-03 -0.32835336D-02  0.58616289D-02  0.16176674D-02  0.82498943D-02
  0.74245173D-02 -0.15323243D-01 -0.30655734D-02  0.29567195D-03  0.10998532D-04
 -0.00000000D+00  0.00000000D+00 -0.16046752D-04  0.00000000D+00 -0.00000000D+00
  0.11801020D-03 -0.00000000D+00  0.00000000D+00 -0.17419278D-03  0.00000000D+00
 -0.00000000D+00 -0.63138347D-07 -0.38805197D-08 -0.38805197D-08  0.00000000D+00
 -0.00000000D+00 -0.00000000D+00 -0.17309038D-07 -0.86191703D-07 -0.86191703D-07
 -0.00000000D+00  0.00000000D+00  0.00000000D+00
MO    4     MO 0.0        OCC NO =    0.0000000  ORB. ENERGY =    0.012855
  0.37755715D-05  0.45561161D-02 -0.31494639D-02 -0.22556878D-02  0.11508071D-01
  0.36100245D-02  0.10720504D-01 -0.17505543D-01 -0.18939344D-02 -0.19527495D-03
 -0.14466507D-05  0.00000000D+00 -0.00000000D+00  0.81573632D-04  0.00000000D+00
  0.00000000D+00 -0.55325908D-04  0.00000000D+00  0.00000000D+00 -0.37066084D-03
 -0.00000000D+00 -0.00000000D+00 -0.14365389D-07 -0.11232636D-07 -0.11232636D-07
  0.00000000D+00 -0.00000000D+00  0.00000000D+00  0.30688365D-06 -0.14315195D-06
 -0.14315195D-06  0.00000000D+00 -0.00000000D+00 -0.00000000D+00 -0.37755715D-05
 -0.45561161D-02  0.31494639D-02  0.22556878D-02 -0.11508071D-01 -0.36100245D-02
 -0.10720504D-01  0.17505543D-01  0.18939344D-02  0.19527495D-03 -0.14466507D-05
 -0.00000000D+00  0.00000000D+00  0.81573632D-04 -0.00000000D+00 -0.00000000D+00
 -0.55325908D-04  0.00000000D+00  0.00000000D+00 -0.37066084D-03  0.00000000D+00
 -0.00000000D+00  0.14365389D-07  0.11232636D-07  0.11232636D-07  0.00000000D+00
 -0.00000000D+00 -0.00000000D+00 -0.30688365D-06  0.14315195D-06  0.14315195D-06
  0.00000000D+00 -0.00000000D+00  0.00000000D+00
MO    5     MO 0.0        OCC NO =    0.0000000  ORB. ENERGY =    0.014510
  0.00000000D+00 -0.00000000D+00  0.00000000D+00 -0.00000000D+00  0.00000000D+00
 -0.00000000D+00  0.00000000D+00 -0.00000000D+00  0.00000000D+00 -0.00000000D+00
  0.00000000D+00  0.56512740D-06 -0.60743160D-06 -0.00000000D+00 -0.57678865D-05
  0.61996571D-05  0.00000000D+00  0.80084635D-04 -0.86079582D-04 -0.00000000D+00
  0.13202643D-03 -0.14190962D-03  0.00000000D+00 -0.00000000D+00 -0.00000000D+00
 -0.12776486D-07  0.13732902D-07  0.00000000D+00 -0.00000000D+00 -0.00000000D+00
 -0.00000000D+00  0.14415917D-06 -0.15495060D-06 -0.00000000D+00 -0.00000000D+00
  0.00000000D+00 -0.00000000D+00 -0.00000000D+00  0.00000000D+00 -0.00000000D+00
  0.00000000D+00 -0.00000000D+00  0.00000000D+00 -0.00000000D+00 -0.00000000D+00
  0.56512740D-06 -0.60743160D-06 -0.00000000D+00 -0.57678865D-05  0.61996571D-05
  0.00000000D+00  0.80084635D-04 -0.86079582D-04  0.00000000D+00  0.13202643D-03
 -0.14190962D-03  0.00000000D+00  0.00000000D+00  0.00000000D+00  0.12776486D-07
 -0.13732902D-07 -0.00000000D+00  0.00000000D+00  0.00000000D+00  0.00000000D+00
 -0.14415917D-06  0.15495060D-06  0.00000000D+00
MO    6     MO 0.0        OCC NO =    0.0000000  ORB. ENERGY =    0.014510
 -0.00000000D+00  0.00000000D+00 -0.00000000D+00  0.00000000D+00 -0.00000000D+00
  0.00000000D+00 -0.00000000D+00  0.00000000D+00 -0.00000000D+00  0.00000000D+00
  0.00000000D+00  0.60743160D-06  0.56512740D-06  0.00000000D+00 -0.61996571D-05
 -0.57678865D-05 -0.00000000D+00  0.86079582D-04  0.80084635D-04  0.00000000D+00
  0.14190962D-03  0.13202643D-03  0.00000000D+00  0.00000000D+00  0.00000000D+00
 -0.13732902D-07 -0.12776486D-07  0.00000000D+00  0.00000000D+00  0.00000000D+00
  0.00000000D+00  0.15495060D-06  0.14415917D-06 -0.00000000D+00  0.00000000D+00
 -0.00000000D+00  0.00000000D+00 -0.00000000D+00  0.00000000D+00 -0.00000000D+00
  0.00000000D+00 -0.00000000D+00  0.00000000D+00 -0.00000000D+00  0.00000000D+00
  0.60743160D-06  0.56512740D-06  0.00000000D+00 -0.61996571D-05 -0.57678865D-05
 -0.00000000D+00  0.86079582D-04  0.80084635D-04  0.00000000D+00  0.14190962D-03
  0.13202643D-03 -0.00000000D+00 -0.00000000D+00 -0.00000000D+00  0.13732902D-07
  0.12776486D-07  0.00000000D+00 -0.00000000D+00 -0.00000000D+00 -0.00000000D+00
 -0.15495060D-06 -0.14415917D-06 -0.00000000D+00
MO    7     MO 0.0        OCC NO =    0.0000000  ORB. ENERGY =    0.014899
  0.26319582D-03  0.63355656D-03  0.39550569D-03 -0.10373527D-01  0.16230978D-01
 -0.70557407D-03  0.11209819D-01 -0.15878964D-01 -0.65036729D-03 -0.52645360D-03
  0.61973337D-05 -0.00000000D+00 -0.00000000D+00 -0.47245494D-05  0.00000000D+00
  0.00000000D+00  0.12576082D-03 -0.00000000D+00 -0.00000000D+00 -0.70463757D-03
 -0.00000000D+00  0.00000000D+00  0.18157725D-07 -0.14281851D-07 -0.14281851D-07
 -0.00000000D+00 -0.00000000D+00  0.00000000D+00 -0.24965080D-06 -0.31303993D-06
 -0.31303993D-06 -0.00000000D+00  0.00000000D+00 -0.00000000D+00  0.26319582D-03
  0.63355656D-03  0.39550569D-03 -0.10373527D-01  0.16230978D-01 -0.70557407D-03
  0.11209819D-01 -0.15878964D-01 -0.65036729D-03 -0.52645360D-03 -0.61973337D-05
  0.00000000D+00  0.00000000D+00  0.47245494D-05  0.00000000D+00 -0.00000000D+00
 -0.12576082D-03 -0.00000000D+00  0.00000000D+00  0.70463757D-03  0.00000000D+00
  0.00000000D+00  0.18157725D-07 -0.14281851D-07 -0.14281851D-07 -0.00000000D+00
 -0.00000000D+00 -0.00000000D+00 -0.24965080D-06 -0.31303993D-06 -0.31303993D-06
 -0.00000000D+00  0.00000000D+00  0.00000000D+00
MO    8     MO 0.0        OCC NO =    0.0000000  ORB. ENERGY =    0.016935
  0.00000000D+00 -0.00000000D+00 -0.00000000D+00 -0.00000000D+00  0.00000000D+00
  0.00000000D+00 -0.00000000D+00  0.00000000D+00 -0.00000000D+00  0.00000000D+00
 -0.00000000D+00  0.43052941D-06  0.54554496D-06 -0.00000000D+00  0.12860979D-05
  0.16296781D-05  0.00000000D+00  0.76301823D-05  0.96685768D-05 -0.00000000D+00
  0.37080930D-03  0.46987066D-03 -0.00000000D+00 -0.00000000D+00 -0.00000000D+00
  0.89773521D-09  0.11375635D-08  0.00000000D+00 -0.00000000D+00 -0.00000000D+00
 -0.00000000D+00  0.50414807D-07  0.63883072D-07 -0.00000000D+00  0.00000000D+00
  0.00000000D+00 -0.00000000D+00 -0.00000000D+00  0.00000000D+00 -0.00000000D+00
  0.00000000D+00 -0.00000000D+00  0.00000000D+00 -0.00000000D+00  0.00000000D+00
 -0.43052941D-06 -0.54554496D-06 -0.00000000D+00 -0.12860979D-05 -0.16296781D-05
  0.00000000D+00 -0.76301823D-05 -0.96685768D-05  0.00000000D+00 -0.37080930D-03
 -0.46987066D-03 -0.00000000D+00  0.00000000D+00  0.00000000D+00  0.89773521D-09
  0.11375635D-08 -0.00000000D+00  0.00000000D+00  0.00000000D+00  0.00000000D+00
  0.50414807D-07  0.63883072D-07  0.00000000D+00
MO    9     MO 0.0        OCC NO =    0.0000000  ORB. ENERGY =    0.016935
 -0.00000000D+00 -0.00000000D+00  0.00000000D+00 -0.00000000D+00  0.00000000D+00
  0.00000000D+00  0.00000000D+00 -0.00000000D+00  0.00000000D+00 -0.00000000D+00
  0.00000000D+00 -0.54554496D-06  0.43052941D-06 -0.00000000D+00 -0.16296781D-05
  0.12860979D-05  0.00000000D+00 -0.96685768D-05  0.76301823D-05 -0.00000000D+00
 -0.46987066D-03  0.37080930D-03  0.00000000D+00 -0.00000000D+00 -0.00000000D+00
 -0.11375635D-08  0.89773521D-09 -0.00000000D+00 -0.00000000D+00 -0.00000000D+00
 -0.00000000D+00 -0.63883072D-07  0.50414807D-07 -0.00000000D+00 -0.00000000D+00
  0.00000000D+00 -0.00000000D+00  0.00000000D+00 -0.00000000D+00  0.00000000D+00
 -0.00000000D+00  0.00000000D+00 -0.00000000D+00  0.00000000D+00 -0.00000000D+00
  0.54554496D-06 -0.43052941D-06 -0.00000000D+00  0.16296781D-05 -0.12860979D-05
  0.00000000D+00  0.96685768D-05 -0.76301823D-05 -0.00000000D+00  0.46987066D-03
 -0.37080930D-03  0.00000000D+00  0.00000000D+00  0.00000000D+00 -0.11375635D-08
  0.89773521D-09  0.00000000D+00  0.00000000D+00  0.00000000D+00  0.00000000D+00
 -0.63883072D-07  0.50414807D-07 -0.00000000D+00
MO   10     MO 0.0        OCC NO =    0.0000000  ORB. ENERGY =    0.019449
 -0.69126173D-04  0.18556657D-01 -0.95295352D-02  0.14588350D-01 -0.12011578D-01
  0.28108779D-02 -0.58377990D-02  0.70086422D-02 -0.32316255D-03  0.43156380D-03
 -0.67793913D-06  0.00000000D+00  0.00000000D+00  0.36038513D-03 -0.00000000D+00
 -0.00000000D+00 -0.35466009D-03  0.00000000D+00  0.00000000D+00  0.60296489D-03
 -0.00000000D+00 -0.00000000D+00 -0.50167562D-08 -0.59964901D-08 -0.59964901D-08
  0.00000000D+00  0.00000000D+00  0.00000000D+00  0.20027742D-05  0.66772913D-07
  0.66772913D-07 -0.00000000D+00 -0.00000000D+00 -0.00000000D+00  0.69126173D-04
 -0.18556657D-01  0.95295352D-02 -0.14588350D-01  0.12011578D-01 -0.28108779D-02
  0.58377990D-02 -0.70086422D-02  0.32316255D-03 -0.43156380D-03 -0.67793913D-06
 -0.00000000D+00 -0.00000000D+00  0.36038513D-03  0.00000000D+00  0.00000000D+00
 -0.35466009D-03 -0.00000000D+00  0.00000000D+00  0.60296489D-03 -0.00000000D+00
 -0.00000000D+00  0.50167562D-08  0.59964901D-08  0.59964901D-08  0.00000000D+00
  0.00000000D+00 -0.00000000D+00 -0.20027742D-05 -0.66772913D-07 -0.66772913D-07
 -0.00000000D+00 -0.00000000D+00  0.00000000D+00
MO   11     MO 0.0        OCC NO =    0.0000000  ORB. ENERGY =    0.020646
 -0.00000000D+00 -0.00000000D+00  0.00000000D+00 -0.00000000D+00  0.00000000D+00
 -0.00000000D+00  0.00000000D+00 -0.00000000D+00  0.00000000D+00 -0.00000000D+00
  0.00000000D+00 -0.71815738D-06  0.74113729D-06 -0.00000000D+00  0.77629785D-05
 -0.80113812D-05  0.00000000D+00 -0.13481895D-03  0.13913294D-03 -0.00000000D+00
  0.60602774D-03 -0.62541965D-03  0.00000000D+00 -0.00000000D+00 -0.00000000D+00
  0.14909910D-07 -0.15387003D-07  0.00000000D+00 -0.00000000D+00  0.00000000D+00
  0.00000000D+00 -0.17237200D-06  0.17788764D-06 -0.00000000D+00 -0.00000000D+00
  0.00000000D+00 -0.00000000D+00  0.00000000D+00  0.00000000D+00 -0.00000000D+00
  0.00000000D+00  0.00000000D+00 -0.00000000D+00 -0.00000000D+00 -0.00000000D+00
 -0.71815738D-06  0.74113729D-06 -0.00000000D+00  0.77629785D-05 -0.80113812D-05
  0.00000000D+00 -0.13481895D-03  0.13913294D-03 -0.00000000D+00  0.60602774D-03
 -0.62541965D-03  0.00000000D+00  0.00000000D+00  0.00000000D+00 -0.14909910D-07
  0.15387003D-07 -0.00000000D+00  0.00000000D+00  0.00000000D+00  0.00000000D+00
  0.17237200D-06 -0.17788764D-06  0.00000000D+00
MO   12     MO 0.0        OCC NO =    0.0000000  ORB. ENERGY =    0.020646
 -0.00000000D+00 -0.00000000D+00 -0.00000000D+00  0.00000000D+00 -0.00000000D+00
  0.00000000D+00 -0.00000000D+00  0.00000000D+00 -0.00000000D+00  0.00000000D+00
  0.00000000D+00 -0.74113729D-06 -0.71815738D-06 -0.00000000D+00  0.80113812D-05
  0.77629785D-05 -0.00000000D+00 -0.13913294D-03 -0.13481895D-03  0.00000000D+00
  0.62541965D-03  0.60602774D-03  0.00000000D+00 -0.00000000D+00 -0.00000000D+00
  0.15387003D-07  0.14909910D-07 -0.00000000D+00 -0.00000000D+00 -0.00000000D+00
 -0.00000000D+00 -0.17788764D-06 -0.17237200D-06 -0.00000000D+00 -0.00000000D+00
  0.00000000D+00  0.00000000D+00 -0.00000000D+00  0.00000000D+00 -0.00000000D+00
  0.00000000D+00 -0.00000000D+00 -0.00000000D+00  0.00000000D+00 -0.00000000D+00
 -0.74113729D-06 -0.71815738D-06 -0.00000000D+00  0.80113812D-05  0.77629785D-05
 -0.00000000D+00 -0.13913294D-03 -0.13481895D-03  0.00000000D+00  0.62541965D-03
  0.60602774D-03  0.00000000D+00  0.00000000D+00  0.00000000D+00 -0.15387003D-07
 -0.14909910D-07 -0.00000000D+00  0.00000000D+00  0.00000000D+00  0.00000000D+00
  0.17788764D-06  0.17237200D-06  0.00000000D+00
MO   13     MO 0.0        OCC NO =    0.0000000  ORB. ENERGY =    0.024905
 -0.38574881D-03 -0.11415174D-03  0.49454815D-03 -0.75435697D-02  0.11879084D-01
  0.90924735D-03  0.66023531D-02 -0.10014652D-01 -0.79897769D-03 -0.21154786D-03
  0.84642852D-05 -0.00000000D+00 -0.00000000D+00 -0.11294111D-04  0.00000000D+00
  0.00000000D+00  0.54789876D-04  0.00000000D+00 -0.00000000D+00  0.24421191D-03
 -0.00000000D+00  0.00000000D+00  0.51685754D-07  0.55238205D-08  0.55238205D-08
 -0.00000000D+00 -0.00000000D+00  0.00000000D+00  0.39392070D-07  0.96429913D-07
  0.96429913D-07  0.00000000D+00  0.00000000D+00  0.00000000D+00 -0.38574881D-03
 -0.11415174D-03  0.49454815D-03 -0.75435697D-02  0.11879084D-01  0.90924735D-03
  0.66023531D-02 -0.10014652D-01 -0.79897769D-03 -0.21154786D-03 -0.84642852D-05
  0.00000000D+00  0.00000000D+00  0.11294111D-04 -0.00000000D+00 -0.00000000D+00
 -0.54789876D-04 -0.00000000D+00  0.00000000D+00 -0.24421191D-03  0.00000000D+00
 -0.00000000D+00  0.51685754D-07  0.55238205D-08  0.55238205D-08 -0.00000000D+00
 -0.00000000D+00  0.00000000D+00  0.39392070D-07  0.96429913D-07  0.96429913D-07
  0.00000000D+00  0.00000000D+00 -0.00000000D+00
MO   14     MO 0.0        OCC NO =    0.0000000  ORB. ENERGY =    0.026343
 -0.00000000D+00  0.00000000D+00 -0.00000000D+00  0.00000000D+00 -0.00000000D+00
 -0.00000000D+00 -0.00000000D+00  0.00000000D+00  0.00000000D+00  0.00000000D+00
  0.00000000D+00  0.11955727D-04 -0.28036923D-04  0.00000000D+00 -0.13152758D-04
  0.30844036D-04 -0.00000000D+00  0.12659030D-03 -0.29686212D-03 -0.00000000D+00
 -0.28905979D-03  0.67786316D-03  0.00000000D+00  0.00000000D+00  0.00000000D+00
  0.60119663D-07 -0.14098435D-06  0.00000000D+00  0.00000000D+00  0.00000000D+00
  0.00000000D+00 -0.25319658D-07  0.59376163D-07 -0.00000000D+00 -0.00000000D+00
 -0.00000000D+00  0.00000000D+00 -0.00000000D+00  0.00000000D+00 -0.00000000D+00
  0.00000000D+00 -0.00000000D+00  0.00000000D+00 -0.00000000D+00 -0.00000000D+00
 -0.11955727D-04  0.28036923D-04  0.00000000D+00  0.13152758D-04 -0.30844036D-04
 -0.00000000D+00 -0.12659030D-03  0.29686212D-03 -0.00000000D+00  0.28905979D-03
 -0.67786316D-03  0.00000000D+00 -0.00000000D+00 -0.00000000D+00  0.60119663D-07
 -0.14098435D-06 -0.00000000D+00 -0.00000000D+00 -0.00000000D+00 -0.00000000D+00
 -0.25319658D-07  0.59376163D-07  0.00000000D+00
MO   15     MO 0.0        OCC NO =    0.0000000  ORB. ENERGY =    0.026343
 -0.00000000D+00  0.00000000D+00 -0.00000000D+00  0.00000000D+00 -0.00000000D+00
 -0.00000000D+00 -0.00000000D+00  0.00000000D+00  0.00000000D+00 -0.00000000D+00
  0.00000000D+00  0.28036923D-04  0.11955727D-04  0.00000000D+00 -0.30844036D-04
 -0.13152758D-04 -0.00000000D+00  0.29686212D-03  0.12659030D-03  0.00000000D+00
 -0.67786316D-03 -0.28905979D-03  0.00000000D+00  0.00000000D+00  0.00000000D+00
  0.14098435D-06  0.60119663D-07 -0.00000000D+00  0.00000000D+00  0.00000000D+00
  0.00000000D+00 -0.59376163D-07 -0.25319658D-07  0.00000000D+00  0.00000000D+00
 -0.00000000D+00  0.00000000D+00 -0.00000000D+00  0.00000000D+00  0.00000000D+00
  0.00000000D+00 -0.00000000D+00 -0.00000000D+00  0.00000000D+00  0.00000000D+00
 -0.28036923D-04 -0.11955727D-04  0.00000000D+00  0.30844036D-04  0.13152758D-04
 -0.00000000D+00 -0.29686212D-03 -0.12659030D-03  0.00000000D+00  0.67786316D-03
  0.28905979D-03 -0.00000000D+00 -0.00000000D+00 -0.00000000D+00  0.14098435D-06
  0.60119663D-07  0.00000000D+00 -0.00000000D+00 -0.00000000D+00 -0.00000000D+00
 -0.59376163D-07 -0.25319658D-07 -0.00000000D+00
MO   16     MO 0.0        OCC NO =    0.0000000  ORB. ENERGY =    0.026630
  0.17446160D-04 -0.43857573D-02  0.39263010D-02 -0.12945853D-01  0.15217666D-01
  0.20156120D-03  0.75904534D-02 -0.11078347D-01 -0.69168288D-03 -0.29711686D-03
  0.14980670D-06 -0.00000000D+00  0.00000000D+00 -0.88444464D-04  0.00000000D+00
  0.00000000D+00  0.16002756D-03  0.00000000D+00 -0.00000000D+00  0.25218457D-03
 -0.00000000D+00  0.00000000D+00 -0.80185737D-09  0.26795425D-08  0.26795425D-08
 -0.00000000D+00  0.00000000D+00 -0.00000000D+00 -0.49262636D-06 -0.54749969D-07
 -0.54749969D-07  0.00000000D+00 -0.00000000D+00  0.00000000D+00 -0.17446160D-04
  0.43857573D-02 -0.39263010D-02  0.12945853D-01 -0.15217666D-01 -0.20156120D-03
 -0.75904534D-02  0.11078347D-01  0.69168288D-03  0.29711686D-03  0.14980670D-06
  0.00000000D+00 -0.00000000D+00 -0.88444464D-04 -0.00000000D+00 -0.00000000D+00
  0.16002756D-03 -0.00000000D+00  0.00000000D+00  0.25218457D-03  0.00000000D+00
 -0.00000000D+00  0.80185737D-09 -0.26795425D-08 -0.26795425D-08 -0.00000000D+00
  0.00000000D+00  0.00000000D+00  0.49262636D-06  0.54749969D-07  0.54749969D-07
  0.00000000D+00 -0.00000000D+00 -0.00000000D+00
MO   17     MO 0.0        OCC NO =    0.0000000  ORB. ENERGY =    0.031218
  0.39380962D-02  0.35823479D-02 -0.15458295D-01  0.13729319D-01 -0.81957081D-02
 -0.17370306D-02 -0.26886590D-02  0.48481428D-02  0.77031344D-03 -0.19600925D-04
 -0.48631590D-04  0.00000000D+00  0.00000000D+00  0.88418035D-04 -0.00000000D+00
 -0.00000000D+00 -0.19324948D-03  0.00000000D+00  0.00000000D+00  0.48666879D-03
 -0.00000000D+00  0.00000000D+00 -0.36685766D-06 -0.89641805D-07 -0.89641805D-07
  0.00000000D+00  0.00000000D+00  0.00000000D+00 -0.92336479D-06 -0.18321042D-05
 -0.18321042D-05 -0.00000000D+00 -0.00000000D+00 -0.00000000D+00  0.39380962D-02
  0.35823479D-02 -0.15458295D-01  0.13729319D-01 -0.81957081D-02 -0.17370306D-02
 -0.26886590D-02  0.48481428D-02  0.77031344D-03 -0.19600925D-04  0.48631590D-04
 -0.00000000D+00 -0.00000000D+00 -0.88418035D-04  0.00000000D+00  0.00000000D+00
  0.19324948D-03 -0.00000000D+00 -0.00000000D+00 -0.48666879D-03  0.00000000D+00
  0.00000000D+00 -0.36685766D-06 -0.89641805D-07 -0.89641805D-07  0.00000000D+00
  0.00000000D+00 -0.00000000D+00 -0.92336479D-06 -0.18321042D-05 -0.18321042D-05
 -0.00000000D+00 -0.00000000D+00  0.00000000D+00
MO   18     MO 0.0        OCC NO =    0.0000000  ORB. ENERGY =    0.032639
 -0.56362450D-03 -0.18650777D-02  0.93516130D-02 -0.15793082D-01  0.13446886D-01
  0.21860218D-03  0.53390598D-02 -0.78178349D-02 -0.51789969D-03 -0.20280739D-03
 -0.80459172D-05  0.00000000D+00  0.00000000D+00  0.34119291D-05 -0.00000000D+00
 -0.00000000D+00 -0.17014732D-03  0.00000000D+00  0.00000000D+00  0.49749939D-03
 -0.00000000D+00 -0.00000000D+00 -0.15348370D-07  0.26498871D-07  0.26498871D-07
  0.00000000D+00  0.00000000D+00  0.00000000D+00  0.50047484D-06  0.62122842D-06
  0.62122842D-06  0.00000000D+00 -0.00000000D+00 -0.00000000D+00 -0.56362450D-03
 -0.18650777D-02  0.93516130D-02 -0.15793082D-01  0.13446886D-01  0.21860218D-03
  0.53390598D-02 -0.78178349D-02 -0.51789969D-03 -0.20280739D-03  0.80459172D-05
 -0.00000000D+00 -0.00000000D+00 -0.34119291D-05  0.00000000D+00  0.00000000D+00
  0.17014732D-03 -0.00000000D+00 -0.00000000D+00 -0.49749939D-03  0.00000000D+00
  0.00000000D+00 -0.15348370D-07  0.26498871D-07  0.26498871D-07  0.00000000D+00
  0.00000000D+00  0.00000000D+00  0.50047484D-06  0.62122842D-06  0.62122842D-06
  0.00000000D+00 -0.00000000D+00 -0.00000000D+00
MO   19     MO 0.0        OCC NO =    0.0000000  ORB. ENERGY =    0.033442
  0.79163482D-04 -0.15769060D-01 -0.17908717D-02  0.79673070D-02 -0.82327510D-02
  0.87130968D-03 -0.34400484D-02  0.44898248D-02  0.31682908D-04  0.20226259D-03
 -0.78385885D-06 -0.00000000D+00 -0.00000000D+00 -0.33067540D-03  0.00000000D+00
  0.00000000D+00  0.37783194D-03 -0.00000000D+00 -0.00000000D+00 -0.57913734D-03
  0.00000000D+00  0.00000000D+00 -0.73270507D-08 -0.33062573D-08 -0.33062573D-08
 -0.00000000D+00 -0.00000000D+00 -0.00000000D+00 -0.20984670D-05 -0.31919038D-06
 -0.31919038D-06  0.00000000D+00  0.00000000D+00  0.00000000D+00 -0.79163482D-04
  0.15769060D-01  0.17908717D-02 -0.79673070D-02  0.82327510D-02 -0.87130968D-03
  0.34400484D-02 -0.44898248D-02 -0.31682908D-04 -0.20226259D-03 -0.78385885D-06
  0.00000000D+00  0.00000000D+00 -0.33067540D-03 -0.00000000D+00 -0.00000000D+00
  0.37783194D-03  0.00000000D+00  0.00000000D+00 -0.57913734D-03 -0.00000000D+00
 -0.00000000D+00  0.73270507D-08  0.33062573D-08  0.33062573D-08 -0.00000000D+00
 -0.00000000D+00  0.00000000D+00  0.20984670D-05  0.31919038D-06  0.31919038D-06
  0.00000000D+00  0.00000000D+00 -0.00000000D+00
MO   20     MO 0.0        OCC NO =    0.0000000  ORB. ENERGY =    0.039581
 -0.78997446D-03 -0.62411272D-02  0.15764496D-01 -0.11901638D-01  0.55081558D-02
  0.31549312D-02  0.12997475D-02 -0.34630366D-02 -0.96502980D-03  0.14413490D-03
  0.49927721D-04 -0.00000000D+00  0.00000000D+00 -0.12251919D-03  0.00000000D+00
 -0.00000000D+00 -0.73798096D-04 -0.00000000D+00  0.00000000D+00  0.79065695D-04
  0.00000000D+00 -0.00000000D+00  0.63107212D-06  0.55554848D-06  0.55554848D-06
 -0.00000000D+00  0.00000000D+00 -0.00000000D+00  0.30819816D-05  0.36539853D-05
  0.36539853D-05  0.00000000D+00 -0.00000000D+00  0.00000000D+00  0.78997446D-03
  0.62411272D-02 -0.15764496D-01  0.11901638D-01 -0.55081558D-02 -0.31549312D-02
 -0.12997475D-02  0.34630366D-02  0.96502980D-03 -0.14413490D-03  0.49927721D-04
  0.00000000D+00 -0.00000000D+00 -0.12251919D-03 -0.00000000D+00  0.00000000D+00
 -0.73798096D-04  0.00000000D+00 -0.00000000D+00  0.79065695D-04 -0.00000000D+00
 -0.00000000D+00 -0.63107212D-06 -0.55554848D-06 -0.55554848D-06 -0.00000000D+00
  0.00000000D+00  0.00000000D+00 -0.30819816D-05 -0.36539853D-05 -0.36539853D-05
  0.00000000D+00 -0.00000000D+00 -0.00000000D+00
MO   21     MO 0.0        OCC NO =    0.0000000  ORB. ENERGY =    0.042632
 -0.00000000D+00 -0.00000000D+00  0.00000000D+00 -0.00000000D+00  0.00000000D+00
 -0.00000000D+00  0.00000000D+00  0.00000000D+00  0.00000000D+00 -0.00000000D+00
  0.00000000D+00 -0.00000000D+00 -0.00000000D+00 -0.00000000D+00  0.00000000D+00
  0.00000000D+00  0.00000000D+00 -0.00000000D+00 -0.00000000D+00 -0.00000000D+00
  0.00000000D+00  0.00000000D+00  0.00000000D+00 -0.48525787D-08  0.48525787D-08
 -0.00000000D+00 -0.00000000D+00  0.10655512D-06  0.00000000D+00  0.62117587D-07
 -0.62117587D-07  0.00000000D+00  0.00000000D+00 -0.13640062D-05 -0.00000000D+00
  0.00000000D+00  0.00000000D+00  0.00000000D+00 -0.00000000D+00 -0.00000000D+00
  0.00000000D+00  0.00000000D+00  0.00000000D+00 -0.00000000D+00 -0.00000000D+00
  0.00000000D+00  0.00000000D+00 -0.00000000D+00 -0.00000000D+00 -0.00000000D+00
 -0.00000000D+00  0.00000000D+00 -0.00000000D+00  0.00000000D+00 -0.00000000D+00
  0.00000000D+00  0.00000000D+00 -0.48525787D-08  0.48525787D-08 -0.00000000D+00
 -0.00000000D+00  0.10655512D-06  0.00000000D+00  0.62117587D-07 -0.62117587D-07
  0.00000000D+00  0.00000000D+00 -0.13640062D-05
MO   22     MO 0.0        OCC NO =    0.0000000  ORB. ENERGY =    0.042632
  0.00000000D+00  0.00000000D+00 -0.00000000D+00  0.00000000D+00 -0.00000000D+00
  0.00000000D+00 -0.00000000D+00 -0.00000000D+00 -0.00000000D+00  0.00000000D+00
 -0.00000000D+00  0.00000000D+00 -0.00000000D+00  0.00000000D+00 -0.00000000D+00
  0.00000000D+00 -0.00000000D+00  0.00000000D+00  0.00000000D+00  0.00000000D+00
 -0.00000000D+00 -0.00000000D+00 -0.00000000D+00 -0.53277561D-07  0.53277561D-07
  0.00000000D+00 -0.00000000D+00 -0.97051556D-08 -0.00000000D+00  0.68200309D-06
 -0.68200309D-06 -0.00000000D+00  0.00000000D+00  0.12423516D-06  0.00000000D+00
 -0.00000000D+00 -0.00000000D+00 -0.00000000D+00  0.00000000D+00  0.00000000D+00
 -0.00000000D+00 -0.00000000D+00 -0.00000000D+00  0.00000000D+00  0.00000000D+00
 -0.00000000D+00  0.00000000D+00  0.00000000D+00  0.00000000D+00 -0.00000000D+00
  0.00000000D+00 -0.00000000D+00  0.00000000D+00 -0.00000000D+00  0.00000000D+00
 -0.00000000D+00 -0.00000000D+00 -0.53277561D-07  0.53277561D-07  0.00000000D+00
 -0.00000000D+00 -0.97051556D-08 -0.00000000D+00  0.68200309D-06 -0.68200309D-06
 -0.00000000D+00  0.00000000D+00  0.12423516D-06
MO   23     MO 0.0        OCC NO =    0.0000000  ORB. ENERGY =    0.042672
 -0.72813181D-02  0.32476474D-02  0.18389816D-02  0.36588353D-03  0.59100018D-04
 -0.12963920D-02  0.16892578D-03  0.40151020D-03  0.32809319D-03 -0.85616365D-04
  0.96747306D-04  0.00000000D+00 -0.00000000D+00 -0.37512388D-04 -0.00000000D+00
  0.00000000D+00  0.39472461D-04  0.00000000D+00 -0.00000000D+00 -0.24907584D-04
 -0.00000000D+00  0.00000000D+00  0.80265533D-06  0.19739324D-06  0.19739324D-06
  0.00000000D+00 -0.00000000D+00 -0.00000000D+00  0.94255559D-06  0.14754879D-05
  0.14754879D-05 -0.00000000D+00  0.00000000D+00  0.00000000D+00 -0.72813181D-02
  0.32476474D-02  0.18389816D-02  0.36588353D-03  0.59100018D-04 -0.12963920D-02
  0.16892578D-03  0.40151020D-03  0.32809319D-03 -0.85616365D-04 -0.96747306D-04
 -0.00000000D+00  0.00000000D+00  0.37512388D-04  0.00000000D+00 -0.00000000D+00
 -0.39472461D-04 -0.00000000D+00  0.00000000D+00  0.24907584D-04  0.00000000D+00
 -0.00000000D+00  0.80265533D-06  0.19739324D-06  0.19739324D-06  0.00000000D+00
 -0.00000000D+00 -0.00000000D+00  0.94255559D-06  0.14754879D-05  0.14754879D-05
 -0.00000000D+00  0.00000000D+00  0.00000000D+00
MO   24     MO 0.0        OCC NO =    0.0000000  ORB. ENERGY =    0.042988
 -0.36091644D-03  0.52167410D-01 -0.13488255D-01  0.11719171D-01 -0.32540634D-02
 -0.81242949D-02  0.83416498D-04  0.38916064D-02  0.21155277D-02 -0.48947832D-03
  0.81752172D-05  0.00000000D+00  0.00000000D+00  0.82475610D-03 -0.00000000D+00
 -0.00000000D+00  0.48457370D-04  0.00000000D+00  0.00000000D+00 -0.88977030D-04
 -0.00000000D+00 -0.00000000D+00  0.17740298D-06  0.22846027D-06  0.22846027D-06
  0.00000000D+00  0.00000000D+00  0.00000000D+00  0.41276730D-05 -0.86612958D-06
 -0.86612958D-06 -0.00000000D+00 -0.00000000D+00 -0.00000000D+00  0.36091645D-03
 -0.52167410D-01  0.13488255D-01 -0.11719171D-01  0.32540634D-02  0.81242949D-02
 -0.83416498D-04 -0.38916064D-02 -0.21155277D-02  0.48947832D-03  0.81752172D-05
 -0.00000000D+00 -0.00000000D+00  0.82475610D-03  0.00000000D+00  0.00000000D+00