[Molden Format]
[Atoms] AU
E+       1       4     0.00000000     0.00000000     0.00000000
E+       2       4    32.40000000     0.00000000     0.00000000
[GTO]
  1 0
s  1 1.00
   1.0000000000E-04   1.0000000000E+00
s  1 1.00
   3.0000000000E-04   1.0000000000E+00
s  1 1.00
   9.0000000000E-04   1.0000000000E+00
s  1 1.00
   2.7000000000E-03   1.0000000000E+00
s  1 1.00
   8.1000000000E-03   1.0000000000E+00
s  1 1.00
   2.4300000000E-02   1.0000000000E+00
s  1 1.00
   7.2900000000E-02   1.0000000000E+00
s  1 1.00
   2.1870000000E-01   1.0000000000E+00
s  1 1.00
   6.5610000000E-01   1.0000000000E+00
s  1 1.00
   1.9683000000E+00   1.0000000000E+00
p  1 1.00
   1.0000000000E-04   1.0000000000E+00
p  1 1.00
   3.0000000000E-04   1.0000000000E+00
p  1 1.00
   9.0000000000E-04   1.0000000000E+00
p  1 1.00
   2.7000000000E-03   1.0000000000E+00
d  1 1.00
   1.0000000000E-04   1.0000000000E+00
d  1 1.00
   3.0000000000E-04   1.0000000000E+00
 
  2 0
s  1 1.00
   1.0000000000E-04   1.0000000000E+00
s  1 1.00
   3.0000000000E-04   1.0000000000E+00
s  1 1.00
   9.0000000000E-04   1.0000000000E+00
s  1 1.00
   2.7000000000E-03   1.0000000000E+00
s  1 1.00
   8.1000000000E-03   1.0000000000E+00
s  1 1.00
   2.4300000000E-02   1.0000000000E+00
s  1 1.00
   7.2900000000E-02   1.0000000000E+00
s  1 1.00
   2.1870000000E-01   1.0000000000E+00
s  1 1.00
   6.5610000000E-01   1.0000000000E+00
s  1 1.00
   1.9683000000E+00   1.0000000000E+00
p  1 1.00
   1.0000000000E-04   1.0000000000E+00
p  1 1.00
   3.0000000000E-04   1.0000000000E+00
p  1 1.00
   9.0000000000E-04   1.0000000000E+00
p  1 1.00
   2.7000000000E-03   1.0000000000E+00
d  1 1.00
   1.0000000000E-04   1.0000000000E+00
d  1 1.00
   3.0000000000E-04   1.0000000000E+00
 
 
[MO]
Ene=    -3.56250E-03
Spin= Alpha
Occup=   1.0000000000
   1       0.08600513
   2      -0.07571405
   3       0.00076501
   4      -0.24675763
   5      -0.25961066
   6      -0.18371884
   7      -0.11676488
   8       0.09407978
   9       0.00636044
  10      -0.00008103
  11      -0.32081713
  12      -0.00000000
  13       0.00000000
  14       0.10973511
  15      -0.00000000
  16      -0.00000000
  17      -0.05771810
  18      -0.00000000
  19       0.00000000
  20       0.02191269
  21       0.00000000
  22      -0.00000000
  23      -0.08936570
  24       0.00270641
  25       0.00270641
  26      -0.00000000
  27       0.00000000
  28       0.00000000
  29       0.05625134
  30       0.01103990
  31       0.01103990
  32      -0.00000000
  33      -0.00000000
  34      -0.00000000
  35       0.08600513
  36      -0.07571405
  37       0.00076501
  38      -0.24675763
  39      -0.25961066
  40      -0.18371884
  41      -0.11676488
  42       0.09407978
  43       0.00636044
  44      -0.00008103
  45       0.32081713
  46       0.00000000
  47      -0.00000000
  48      -0.10973511
  49       0.00000000
  50       0.00000000
  51       0.05771810
  52       0.00000000
  53      -0.00000000
  54      -0.02191269
  55      -0.00000000
  56       0.00000000
  57      -0.08936570
  58       0.00270641
  59       0.00270641
  60      -0.00000000
  61       0.00000000
  62      -0.00000000
  63       0.05625134
  64       0.01103990
  65       0.01103990
  66      -0.00000000
  67      -0.00000000
  68       0.00000000
Ene=    -2.91699E-03
Spin= Alpha
Occup=   0.0000000000
   1      -0.00248179
   2      -0.00893296
   3      -0.06159772
   4      -0.32228288
   5      -0.26130853
   6      -0.20475305
   7      -0.12073416
   8       0.09887165
   9       0.00699244
  10      -0.00012863
  11       0.01324614
  12      -0.00000000
  13       0.00000000
  14       0.02272017
  15      -0.00000000
  16      -0.00000000
  17      -0.09162605
  18       0.00000000
  19       0.00000000
  20       0.01700949
  21      -0.00000000
  22      -0.00000000
  23       0.02093462
  24       0.01095659
  25       0.01095659
  26       0.00000000
  27       0.00000000
  28       0.00000000
  29       0.03549077
  30       0.04564695
  31       0.04564695
  32      -0.00000000
  33      -0.00000000
  34      -0.00000000
  35       0.00248179
  36       0.00893296
  37       0.06159772
  38       0.32228288
  39       0.26130853
  40       0.20475305
  41       0.12073416
  42      -0.09887165
  43      -0.00699244
  44       0.00012863
  45       0.01324614
  46       0.00000000
  47      -0.00000000
  48       0.02272017
  49       0.00000000
  50       0.00000000
  51      -0.09162605
  52      -0.00000000
  53      -0.00000000
  54       0.01700949
  55       0.00000000
  56       0.00000000
  57      -0.02093462
  58      -0.01095659
  59      -0.01095659
  60      -0.00000000
  61       0.00000000
  62       0.00000000
  63      -0.03549077
  64      -0.04564695
  65      -0.04564695
  66      -0.00000000
  67      -0.00000000
  68      -0.00000000
Ene=     4.10407E-03
Spin= Alpha
Occup=   0.0000000000
   1       0.75500784
   2       0.00198007
   3      -1.09012755
   4       0.80344816
   5       0.02902660
   6       0.11275639
   7       0.03532551
   8      -0.03428251
   9      -0.00338664
  10       0.00017867
  11      -1.83106117
  12      -0.00000000
  13      -0.00000000
  14       0.57514790
  15      -0.00000000
  16       0.00000000
  17      -0.49748815
  18       0.00000000
  19      -0.00000000
  20       0.05087118
  21      -0.00000000
  22       0.00000000
  23      -0.54333876
  24      -0.02316258
  25      -0.02316258
  26      -0.00000000
  27      -0.00000000
  28      -0.00000000
  29       0.13087002
  30      -0.08256780
  31      -0.08256780
  32      -0.00000000
  33       0.00000000
  34       0.00000000
  35       0.75500784
  36       0.00198007
  37      -1.09012755
  38       0.80344816
  39       0.02902660
  40       0.11275639
  41       0.03532551
  42      -0.03428251
  43      -0.00338664
  44       0.00017867
  45       1.83106117
  46       0.00000000
  47       0.00000000
  48      -0.57514790
  49       0.00000000
  50      -0.00000000
  51       0.49748815
  52      -0.00000000
  53       0.00000000
  54      -0.05087118
  55       0.00000000
  56      -0.00000000
  57      -0.54333876
  58      -0.02316258
  59      -0.02316258
  60      -0.00000000
  61      -0.00000000
  62       0.00000000
  63       0.13087002
  64      -0.08256780
  65      -0.08256780
  66      -0.00000000
  67       0.00000000
  68      -0.00000000
Ene=     5.16535E-03
Spin= Alpha
Occup=   0.0000000000
   1      -0.00000000
   2      -0.00000000
   3       0.00000000
   4      -0.00000000
   5      -0.00000000
   6       0.00000000
   7       0.00000000
   8      -0.00000000
   9      -0.00000000
  10       0.00000000
  11       0.00000000
  12      -0.00991832
  13      -0.02509710
  14      -0.00000000
  15       0.03327401
  16       0.08419579
  17       0.00000000
  18      -0.12276715
  19      -0.31064722
  20       0.00000000
  21      -0.12798435
  22      -0.32384871
  23       0.00000000
  24       0.00000000
  25       0.00000000
  26      -0.00131392
  27      -0.00332471
  28      -0.00000000
  29       0.00000000
  30       0.00000000
  31       0.00000000
  32      -0.00871896
  33      -0.02206227
  34      -0.00000000
  35      -0.00000000
  36      -0.00000000
  37      -0.00000000
  38       0.00000000
  39       0.00000000
  40      -0.00000000
  41       0.00000000
  42      -0.00000000
  43       0.00000000
  44      -0.00000000
  45      -0.00000000
  46      -0.00991832
  47      -0.02509710
  48       0.00000000
  49       0.03327401
  50       0.08419579
  51       0.00000000
  52      -0.12276715
  53      -0.31064722
  54       0.00000000
  55      -0.12798435
  56      -0.32384871
  57       0.00000000
  58      -0.00000000
  59      -0.00000000
  60       0.00131392
  61       0.00332471
  62       0.00000000
  63      -0.00000000
  64      -0.00000000
  65      -0.00000000
  66       0.00871896
  67       0.02206227
  68       0.00000000
Ene=     5.16535E-03
Spin= Alpha
Occup=   0.0000000000
   1      -0.00000000
   2       0.00000000
   3      -0.00000000
   4       0.00000000
   5      -0.00000000
   6       0.00000000
   7      -0.00000000
   8       0.00000000
   9      -0.00000000
  10       0.00000000
  11       0.00000000
  12       0.02509710
  13      -0.00991832
  14      -0.00000000
  15      -0.08419579
  16       0.03327401
  17      -0.00000000
  18       0.31064722
  19      -0.12276715
  20       0.00000000
  21       0.32384871
  22      -0.12798435
  23       0.00000000
  24      -0.00000000
  25       0.00000000
  26       0.00332471
  27      -0.00131392
  28      -0.00000000
  29      -0.00000000
  30      -0.00000000
  31      -0.00000000
  32       0.02206227
  33      -0.00871896
  34       0.00000000
  35      -0.00000000
  36      -0.00000000
  37       0.00000000
  38       0.00000000
  39      -0.00000000
  40      -0.00000000
  41      -0.00000000
  42       0.00000000
  43      -0.00000000
  44       0.00000000
  45      -0.00000000
  46       0.02509710
  47      -0.00991832
  48       0.00000000
  49      -0.08419579
  50       0.03327401
  51      -0.00000000
  52       0.31064722
  53      -0.12276715
  54      -0.00000000
  55       0.32384871
  56      -0.12798435
  57       0.00000000
  58      -0.00000000
  59      -0.00000000
  60      -0.00332471
  61       0.00131392
  62       0.00000000
  63      -0.00000000
  64      -0.00000000
  65      -0.00000000
  66      -0.02206227
  67       0.00871896
  68       0.00000000
Ene=     7.69149E-03
Spin= Alpha
Occup=   0.0000000000
   1      -0.00000000
   2      -0.00000000
   3      -0.00000000
   4      -0.00000000
   5       0.00000000
   6       0.00000000
   7       0.00000000
   8      -0.00000000
   9      -0.00000000
  10       0.00000000
  11      -0.00000000
  12      -1.22973958
  13       0.78095970
  14      -0.00000000
  15       0.22894047
  16      -0.14539118
  17       0.00000000
  18      -0.18071423
  19       0.11476457
  20       0.00000000
  21      -0.60542141
  22       0.38447955
  23       0.00000000
  24       0.00000000
  25       0.00000000
  26      -0.19672386
  27       0.12493166
  28       0.00000000
  29      -0.00000000
  30      -0.00000000
  31      -0.00000000
  32       0.04203106
  33      -0.02669229
  34       0.00000000
  35       0.00000000
  36       0.00000000
  37      -0.00000000
  38      -0.00000000
  39       0.00000000
  40      -0.00000000
  41       0.00000000
  42      -0.00000000
  43      -0.00000000
  44       0.00000000
  45      -0.00000000
  46       1.22973958
  47      -0.78095970
  48      -0.00000000
  49      -0.22894047
  50       0.14539118
  51      -0.00000000
  52       0.18071423
  53      -0.11476457
  54       0.00000000
  55       0.60542141
  56      -0.38447955
  57       0.00000000
  58      -0.00000000
  59      -0.00000000
  60      -0.19672386
  61       0.12493166
  62      -0.00000000
  63       0.00000000
  64      -0.00000000
  65      -0.00000000
  66       0.04203106
  67      -0.02669229
  68      -0.00000000
Ene=     7.69149E-03
Spin= Alpha
Occup=   0.0000000000
   1      -0.00000000
   2       0.00000000
   3       0.00000000
   4       0.00000000
   5      -0.00000000
   6      -0.00000000
   7       0.00000000
   8       0.00000000
   9       0.00000000
  10       0.00000000
  11      -0.00000000
  12      -0.78095970
  13      -1.22973958
  14       0.00000000
  15       0.14539118
  16       0.22894047
  17      -0.00000000
  18      -0.11476457
  19      -0.18071423
  20       0.00000000
  21      -0.38447955
  22      -0.60542141
  23      -0.00000000
  24       0.00000000
  25       0.00000000
  26      -0.12493166
  27      -0.19672386
  28      -0.00000000
  29       0.00000000
  30       0.00000000
  31       0.00000000
  32       0.02669229
  33       0.04203106
  34       0.00000000
  35       0.00000000
  36      -0.00000000
  37       0.00000000
  38      -0.00000000
  39       0.00000000
  40      -0.00000000
  41       0.00000000
  42      -0.00000000
  43       0.00000000
  44      -0.00000000
  45      -0.00000000
  46       0.78095970
  47       1.22973958
  48       0.00000000
  49      -0.14539118
  50      -0.22894047
  51       0.00000000
  52       0.11476457
  53       0.18071423
  54       0.00000000
  55       0.38447955
  56       0.60542141
  57      -0.00000000
  58      -0.00000000
  59      -0.00000000
  60      -0.12493166
  61      -0.19672386
  62       0.00000000
  63      -0.00000000
  64       0.00000000
  65       0.00000000
  66       0.02669229
  67       0.04203106
  68       0.00000000
Ene=     8.39353E-03
Spin= Alpha
Occup=   0.0000000000
   1       0.02179579
   2      -0.00872158
   3      -3.47013175
   4      -0.12449811
   5       0.53841158
   6       0.02232365
   7       0.08071245
   8      -0.05373391
   9      -0.00179853
  10      -0.00022424
  11      -0.12282364
  12       0.00000000
  13      -0.00000000
  14       0.03094046
  15      -0.00000000
  16      -0.00000000
  17      -1.26235981
  18       0.00000000
  19      -0.00000000
  20      -0.17925957
  21      -0.00000000
  22      -0.00000000
  23      -0.09814676
  24      -0.18840269
  25      -0.18840269
  26       0.00000000
  27      -0.00000000
  28       0.00000000
  29      -0.26262822
  30      -0.10603881
  31      -0.10603881
  32      -0.00000000
  33      -0.00000000
  34       0.00000000
  35      -0.02179579
  36       0.00872158
  37       3.47013175
  38       0.12449811
  39      -0.53841158
  40      -0.02232365
  41      -0.08071245
  42       0.05373391
  43       0.00179853
  44       0.00022424
  45      -0.12282364
  46      -0.00000000
  47       0.00000000
  48       0.03094046
  49       0.00000000
  50       0.00000000
  51      -1.26235981
  52      -0.00000000
  53       0.00000000
  54      -0.17925957
  55       0.00000000
  56       0.00000000
  57       0.09814676
  58       0.18840269
  59       0.18840269
  60       0.00000000
  61      -0.00000000
  62      -0.00000000
  63       0.26262822
  64       0.10603881
  65       0.10603881
  66      -0.00000000
  67      -0.00000000
  68       0.00000000
Ene=     8.81480E-03
Spin= Alpha
Occup=   0.0000000000
   1       0.22574735
   2      -0.19229071
   3      -0.22711486
   4       0.28042683
   5      -0.16819130
   6       0.03879729
   7      -0.01968734
   8       0.00857024
   9      -0.00064871
  10       0.00016906
  11      -0.97784775
  12       0.00000000
  13       0.00000000
  14       0.28714287
  15      -0.00000000
  16      -0.00000000
  17      -0.25673764
  18       0.00000000
  19       0.00000000
  20       0.68367111
  21      -0.00000000
  22       0.00000000
  23      -0.26597563
  24       0.01379078
  25       0.01379078
  26       0.00000000
  27       0.00000000
  28      -0.00000000
  29       0.15495382
  30       0.04496892
  31       0.04496892
  32      -0.00000000
  33      -0.00000000
  34       0.00000000
  35       0.22574735
  36      -0.19229071
  37      -0.22711486
  38       0.28042683
  39      -0.16819130
  40       0.03879729
  41      -0.01968734
  42       0.00857024
  43      -0.00064871
  44       0.00016906
  45       0.97784775
  46      -0.00000000
  47      -0.00000000
  48      -0.28714287
  49       0.00000000
  50       0.00000000
  51       0.25673764
  52      -0.00000000
  53      -0.00000000
  54      -0.68367111
  55       0.00000000
  56       0.00000000
  57      -0.26597563
  58       0.01379078
  59       0.01379078
  60       0.00000000
  61       0.00000000
  62      -0.00000000
  63       0.15495382
  64       0.04496892
  65       0.04496892
  66      -0.00000000
  67      -0.00000000
  68       0.00000000
Ene=     1.21963E-02
Spin= Alpha
Occup=   0.0000000000
   1       0.00000000
   2      -0.00000000
   3      -0.00000000
   4       0.00000000
   5      -0.00000000
   6       0.00000000
   7      -0.00000000
   8       0.00000000
   9       0.00000000
  10       0.00000000
  11      -0.00000000
  12      -0.00303065
  13      -0.06208085
  14       0.00000000
  15       0.01045389
  16       0.21414094
  17      -0.00000000
  18      -0.04598876
  19      -0.94204897
  20       0.00000000
  21       0.04529527
  22       0.92784315
  23      -0.00000000
  24       0.00000000
  25       0.00000000
  26      -0.00035028
  27      -0.00717529
  28       0.00000000
  29       0.00000000
  30       0.00000000
  31       0.00000000
  32      -0.00266217
  33      -0.05453282
  34      -0.00000000
  35       0.00000000
  36      -0.00000000
  37      -0.00000000
  38       0.00000000
  39      -0.00000000
  40       0.00000000
  41      -0.00000000
  42       0.00000000
  43       0.00000000
  44       0.00000000
  45       0.00000000
  46      -0.00303065
  47      -0.06208085
  48      -0.00000000
  49       0.01045389
  50       0.21414094
  51       0.00000000
  52      -0.04598876
  53      -0.94204897
  54      -0.00000000
  55       0.04529527
  56       0.92784315
  57      -0.00000000
  58       0.00000000
  59       0.00000000
  60       0.00035028
  61       0.00717529
  62      -0.00000000
  63       0.00000000
  64       0.00000000
  65       0.00000000
  66       0.00266217
  67       0.05453282
  68       0.00000000
Ene=     1.21963E-02
Spin= Alpha
Occup=   0.0000000000
   1      -0.00000000
   2       0.00000000
   3      -0.00000000
   4       0.00000000
   5      -0.00000000
   6      -0.00000000
   7      -0.00000000
   8       0.00000000
   9       0.00000000
  10      -0.00000000
  11       0.00000000
  12       0.06208085
  13      -0.00303065
  14      -0.00000000
  15      -0.21414094
  16       0.01045389
  17      -0.00000000
  18       0.94204897
  19      -0.04598876
  20      -0.00000000
  21      -0.92784315
  22       0.04529527
  23       0.00000000
  24      -0.00000000
  25      -0.00000000
  26       0.00717529
  27      -0.00035028
  28       0.00000000
  29      -0.00000000
  30      -0.00000000
  31      -0.00000000
  32       0.05453282
  33      -0.00266217
  34      -0.00000000
  35      -0.00000000
  36       0.00000000
  37       0.00000000
  38       0.00000000
  39      -0.00000000
  40       0.00000000
  41      -0.00000000
  42       0.00000000
  43      -0.00000000
  44       0.00000000
  45      -0.00000000
  46       0.06208085
  47      -0.00303065
  48       0.00000000
  49      -0.21414094
  50       0.01045389
  51      -0.00000000
  52       0.94204897
  53      -0.04598876
  54      -0.00000000
  55      -0.92784315
  56       0.04529527
  57       0.00000000
  58       0.00000000
  59       0.00000000
  60      -0.00717529
  61       0.00035028
  62      -0.00000000
  63      -0.00000000
  64       0.00000000
  65       0.00000000
  66      -0.05453282
  67       0.00266217
  68       0.00000000
Ene=     1.22732E-02
Spin= Alpha
Occup=   0.0000000000
   1       0.40955587
   2      -0.38695005
   3      -0.28563321
   4       1.69501848
   5      -1.07044213
   6       0.02658156
   7      -0.12496263
   8       0.07688634
   9       0.00133334
  10       0.00050054
  11      -2.06556020
  12       0.00000000
  13      -0.00000000
  14       0.39768981
  15      -0.00000000
  16       0.00000000
  17      -0.54045270
  18       0.00000000
  19       0.00000000
  20       0.06140904
  21      -0.00000000
  22      -0.00000000
  23      -0.54855063
  24       0.03768160
  25       0.03768160
  26       0.00000000
  27      -0.00000000
  28       0.00000000
  29       0.25386608
  30       0.13418480
  31       0.13418480
  32      -0.00000000
  33       0.00000000
  34       0.00000000
  35       0.40955587
  36      -0.38695005
  37      -0.28563321
  38       1.69501848
  39      -1.07044213
  40       0.02658156
  41      -0.12496263
  42       0.07688634
  43       0.00133334
  44       0.00050054
  45       2.06556020
  46      -0.00000000
  47       0.00000000
  48      -0.39768981
  49       0.00000000
  50      -0.00000000
  51       0.54045270
  52      -0.00000000
  53       0.00000000
  54      -0.06140904
  55       0.00000000
  56      -0.00000000
  57      -0.54855063
  58       0.03768160
  59       0.03768160
  60       0.00000000
  61      -0.00000000
  62       0.00000000
  63       0.25386608
  64       0.13418480
  65       0.13418480
  66      -0.00000000
  67       0.00000000
  68      -0.00000000
Ene=     1.25846E-02
Spin= Alpha
Occup=   0.0000000000
   1      -0.01735856
   2      -0.00127746
   3       2.40536741
   4      -0.11820925
   5       0.01917126
   6       0.07693055
   7       0.01157256
   8      -0.01510488
   9      -0.00203017
  10       0.00015282
  11       0.09703937
  12      -0.00000000
  13       0.00000000
  14      -0.00239118
  15       0.00000000
  16       0.00000000
  17       0.81758344
  18       0.00000000
  19       0.00000000
  20       1.23946186
  21      -0.00000000
  22      -0.00000000
  23       0.08856948
  24       0.14080682
  25       0.14080682
  26      -0.00000000
  27       0.00000000
  28      -0.00000000
  29       0.21117425
  30       0.11444330
  31       0.11444330
  32       0.00000000
  33       0.00000000
  34       0.00000000
  35       0.01735856
  36       0.00127746
  37      -2.40536741
  38       0.11820925
  39      -0.01917126
  40      -0.07693055
  41      -0.01157256
  42       0.01510488
  43       0.00203017
  44      -0.00015282
  45       0.09703937
  46       0.00000000
  47      -0.00000000
  48      -0.00239118
  49      -0.00000000
  50      -0.00000000
  51       0.81758344
  52       0.00000000
  53       0.00000000
  54       1.23946186
  55      -0.00000000
  56      -0.00000000
  57      -0.08856948
  58      -0.14080682
  59      -0.14080682
  60      -0.00000000
  61       0.00000000
  62       0.00000000
  63      -0.21117425
  64      -0.11444330
  65      -0.11444330
  66       0.00000000
  67       0.00000000
  68       0.00000000
Ene=     1.75297E-02
Spin= Alpha
Occup=   0.0000000000
   1       0.01020530
   2      -0.02993263
   3      -5.18713788
   4       3.07240252
   5      -1.38538628
   6       0.11145521
   7      -0.12007438
   8       0.06565869
   9      -0.00053497
  10       0.00066736
  11      -0.05996432
  12      -0.00000000
  13      -0.00000000
  14       0.04749490
  15       0.00000000
  16      -0.00000000
  17      -1.87070145
  18      -0.00000000
  19       0.00000000
  20       0.51473188
  21       0.00000000
  22      -0.00000000
  23      -0.01059376
  24      -0.11670138
  25      -0.11670138
  26      -0.00000000
  27      -0.00000000
  28      -0.00000000
  29      -0.14743297
  30       0.02505718
  31       0.02505718
  32       0.00000000
  33      -0.00000000
  34      -0.00000000
  35      -0.01020530
  36       0.02993263
  37       5.18713788
  38      -3.07240252
  39       1.38538628
  40      -0.11145521
  41       0.12007438
  42      -0.06565869
  43       0.00053497
  44      -0.00066736
  45      -0.05996432
  46       0.00000000
  47       0.00000000
  48       0.04749490
  49      -0.00000000
  50       0.00000000
  51      -1.87070145
  52       0.00000000
  53      -0.00000000
  54       0.51473188
  55      -0.00000000
  56       0.00000000
  57       0.01059376
  58       0.11670138
  59       0.11670138
  60      -0.00000000
  61      -0.00000000
  62       0.00000000
  63       0.14743297
  64      -0.02505718
  65      -0.02505718
  66       0.00000000
  67      -0.00000000
  68       0.00000000
Ene=     1.81492E-02
Spin= Alpha
Occup=   0.0000000000
   1       0.00000000
   2       0.00000000
   3      -0.00000000
   4       0.00000000
   5      -0.00000000
   6       0.00000000
   7      -0.00000000
   8       0.00000000
   9       0.00000000
  10      -0.00000000
  11       0.00000000
  12      10.72973250
  13      -1.63299057
  14       0.00000000
  15      -2.31334381
  16       0.35207482
  17      -0.00000000
  18       1.86514771
  19      -0.28386249
  20       0.00000000
  21      -0.88751659
  22       0.13507384
  23       0.00000000
  24      -0.00000000
  25      -0.00000000
  26       1.72349417
  27      -0.26230381
  28      -0.00000000
  29      -0.00000000
  30       0.00000000
  31       0.00000000
  32      -0.46983133
  33       0.07150506
  34      -0.00000000
  35      -0.00000000
  36      -0.00000000
  37       0.00000000
  38      -0.00000000
  39       0.00000000
  40      -0.00000000
  41       0.00000000
  42      -0.00000000
  43      -0.00000000
  44      -0.00000000
  45      -0.00000000
  46     -10.72973250
  47       1.63299057
  48       0.00000000
  49       2.31334381
  50      -0.35207482
  51      -0.00000000
  52      -1.86514771
  53       0.28386249
  54       0.00000000
  55       0.88751659
  56      -0.13507384
  57       0.00000000
  58       0.00000000
  59       0.00000000
  60       1.72349417
  61      -0.26230381
  62      -0.00000000
  63      -0.00000000
  64      -0.00000000
  65      -0.00000000
  66      -0.46983133
  67       0.07150506
  68       0.00000000
Ene=     1.81492E-02
Spin= Alpha
Occup=   0.0000000000
   1       0.00000000
   2      -0.00000000
   3      -0.00000000
   4       0.00000000
   5      -0.00000000
   6       0.00000000
   7      -0.00000000
   8       0.00000000
   9       0.00000000
  10      -0.00000000
  11       0.00000000
  12       1.63299057
  13      10.72973250
  14      -0.00000000
  15      -0.35207482
  16      -2.31334381
  17       0.00000000
  18       0.28386249
  19       1.86514771
  20      -0.00000000
  21      -0.13507384
  22      -0.88751659
  23       0.00000000
  24       0.00000000
  25       0.00000000
  26       0.26230381
  27       1.72349417
  28       0.00000000
  29      -0.00000000
  30      -0.00000000
  31      -0.00000000
  32      -0.07150506
  33      -0.46983133
  34      -0.00000000
  35      -0.00000000
  36       0.00000000
  37      -0.00000000
  38       0.00000000
  39      -0.00000000
  40       0.00000000
  41      -0.00000000
  42       0.00000000
  43       0.00000000
  44       0.00000000
  45      -0.00000000
  46      -1.63299057
  47     -10.72973250
  48      -0.00000000
  49       0.35207482
  50       2.31334381
  51      -0.00000000
  52      -0.28386249
  53      -1.86514771
  54       0.00000000
  55       0.13507384
  56       0.88751659
  57       0.00000000
  58      -0.00000000
  59      -0.00000000
  60       0.26230381
  61       1.72349417
  62      -0.00000000
  63       0.00000000
  64      -0.00000000
  65      -0.00000000
  66      -0.07150506
  67      -0.46983133
  68       0.00000000
Ene=     2.17370E-02
Spin= Alpha
Occup=   0.0000000000
   1       1.82786605
   2      -1.75853837
   3       1.77846829
   4      -1.19858475
   5       0.46608569
   6       0.02471863
   7       0.03755397
   8      -0.02638389
   9      -0.00122931
  10      -0.00006518
  11      -6.87847279
  12      -0.00000000
  13      -0.00000000
  14       1.88928863
  15       0.00000000
  16       0.00000000
  17      -1.33444273
  18       0.00000000
  19      -0.00000000
  20       0.63435563
  21      -0.00000000
  22      -0.00000000
  23      -1.91360401
  24       0.05765349
  25       0.05765349
  26      -0.00000000
  27      -0.00000000
  28       0.00000000
  29       1.03239430
  30       0.29985922
  31       0.29985922
  32       0.00000000
  33       0.00000000
  34      -0.00000000
  35       1.82786605
  36      -1.75853837
  37       1.77846829
  38      -1.19858475
  39       0.46608569
  40       0.02471863
  41       0.03755397
  42      -0.02638389
  43      -0.00122931
  44      -0.00006518
  45       6.87847279
  46       0.00000000
  47       0.00000000
  48      -1.88928863
  49      -0.00000000
  50      -0.00000000
  51       1.33444273
  52      -0.00000000
  53       0.00000000
  54      -0.63435563
  55       0.00000000
  56       0.00000000
  57      -1.91360401
  58       0.05765349
  59       0.05765349
  60      -0.00000000
  61      -0.00000000
  62      -0.00000000
  63       1.03239430
  64       0.29985922
  65       0.29985922
  66       0.00000000
  67       0.00000000
  68       0.00000000
Ene=     2.47715E-02
Spin= Alpha
Occup=   0.0000000000
   1      -0.07173760
   2      -0.31825590
   3      -4.76969995
   4       0.48384633
   5      -0.16266914
   6       0.05853115
   7      -0.00921502
   8       0.00031392
   9      -0.00112232
  10       0.00016079
  11       0.38008656
  12      -0.00000000
  13      -0.00000000
  14       0.78726675
  15      -0.00000000
  16       0.00000000
  17      -4.65875696
  18      -0.00000000
  19      -0.00000000
  20       1.07315543
  21       0.00000000
  22       0.00000000
  23       0.64633407
  24       0.30813900
  25       0.30813900
  26      -0.00000000
  27      -0.00000000
  28      -0.00000000
  29       1.07454101
  30       1.40310178
  31       1.40310178
  32      -0.00000000
  33      -0.00000000
  34       0.00000000
  35       0.07173760
  36       0.31825590
  37       4.76969995
  38      -0.48384633
  39       0.16266914
  40      -0.05853115
  41       0.00921502
  42      -0.00031392
  43       0.00112232
  44      -0.00016079
  45       0.38008656
  46       0.00000000
  47       0.00000000
  48       0.78726675
  49       0.00000000
  50      -0.00000000
  51      -4.65875696
  52       0.00000000
  53       0.00000000
  54       1.07315543
  55      -0.00000000
  56       0.00000000
  57      -0.64633407
  58      -0.30813900
  59      -0.30813900
  60      -0.00000000
  61      -0.00000000
  62       0.00000000
  63      -1.07454101
  64      -1.40310178
  65      -1.40310178
  66      -0.00000000
  67      -0.00000000
  68      -0.00000000
Ene=     2.87535E-02
Spin= Alpha
Occup=   0.0000000000
   1      -5.03495961
   2      -2.09972572
   3       4.75984556
   4      -2.12274362
   5       0.43092063
   6       0.13546053
   7       0.01859938
   8      -0.02554729
   9      -0.00362472
  10       0.00027768
  11       4.83196248
  12       0.00000000