 Molden2AIM, Version 3.1.0 (02/25/2015)           Time: Thu Oct 17 19:53:25 2024
GAUSSIAN             68 MOL ORBITALS     68 PRIMITIVES        2 NUCLEI
  Be   1    (CENTRE  1)   0.00000000  0.00000000  0.00000000  CHARGE =  4.0
  Be   2    (CENTRE  2)  19.40000000  0.00000000  0.00000000  CHARGE =  4.0
CENTRE ASSIGNMENTS    1  1  1  1  1  1  1  1  1  1  1  1  1  1  1  1  1  1  1  1
CENTRE ASSIGNMENTS    1  1  1  1  1  1  1  1  1  1  1  1  1  1  2  2  2  2  2  2
CENTRE ASSIGNMENTS    2  2  2  2  2  2  2  2  2  2  2  2  2  2  2  2  2  2  2  2
CENTRE ASSIGNMENTS    2  2  2  2  2  2  2  2
TYPE ASSIGNMENTS      1  1  1  1  1  1  1  1  1  1  2  3  4  2  3  4  2  3  4  2
TYPE ASSIGNMENTS      3  4  5  6  7  8  9 10  5  6  7  8  9 10  1  1  1  1  1  1
TYPE ASSIGNMENTS      1  1  1  1  2  3  4  2  3  4  2  3  4  2  3  4  5  6  7  8
TYPE ASSIGNMENTS      9 10  5  6  7  8  9 10
EXPONENTS  0.1000000D-03 0.3000000D-03 0.9000000D-03 0.2700000D-02 0.8100000D-02
EXPONENTS  0.2430000D-01 0.7290000D-01 0.2187000D+00 0.6561000D+00 0.1968300D+01
EXPONENTS  0.1000000D-03 0.1000000D-03 0.1000000D-03 0.3000000D-03 0.3000000D-03
EXPONENTS  0.3000000D-03 0.9000000D-03 0.9000000D-03 0.9000000D-03 0.2700000D-02
EXPONENTS  0.2700000D-02 0.2700000D-02 0.1000000D-03 0.1000000D-03 0.1000000D-03
EXPONENTS  0.1000000D-03 0.1000000D-03 0.1000000D-03 0.3000000D-03 0.3000000D-03
EXPONENTS  0.3000000D-03 0.3000000D-03 0.3000000D-03 0.3000000D-03 0.1000000D-03
EXPONENTS  0.3000000D-03 0.9000000D-03 0.2700000D-02 0.8100000D-02 0.2430000D-01
EXPONENTS  0.7290000D-01 0.2187000D+00 0.6561000D+00 0.1968300D+01 0.1000000D-03
EXPONENTS  0.1000000D-03 0.1000000D-03 0.3000000D-03 0.3000000D-03 0.3000000D-03
EXPONENTS  0.9000000D-03 0.9000000D-03 0.9000000D-03 0.2700000D-02 0.2700000D-02
EXPONENTS  0.2700000D-02 0.1000000D-03 0.1000000D-03 0.1000000D-03 0.1000000D-03
EXPONENTS  0.1000000D-03 0.1000000D-03 0.3000000D-03 0.3000000D-03 0.3000000D-03
EXPONENTS  0.3000000D-03 0.3000000D-03 0.3000000D-03
MO    1     MO 0.0        OCC NO =    1.0000000  ORB. ENERGY =   -0.004688
  0.65266488D-04 -0.13841777D-03  0.15776114D-03  0.16705266D-02  0.43691259D-02
  0.86275949D-02  0.11766114D-01 -0.21786580D-01 -0.34133008D-02  0.11588825D-03
 -0.73169445D-05 -0.00000000D+00 -0.00000000D+00  0.11514677D-04  0.00000000D+00
  0.00000000D+00 -0.44050021D-05 -0.00000000D+00 -0.00000000D+00  0.26499248D-04
  0.00000000D+00  0.00000000D+00 -0.14172304D-07  0.19434398D-09  0.19434398D-09
 -0.00000000D+00 -0.00000000D+00 -0.00000000D+00  0.72086898D-07  0.67171409D-08
  0.67171409D-08  0.00000000D+00  0.00000000D+00  0.00000000D+00  0.65266488D-04
 -0.13841777D-03  0.15776114D-03  0.16705266D-02  0.43691259D-02  0.86275949D-02
  0.11766114D-01 -0.21786580D-01 -0.34133008D-02  0.11588825D-03  0.73169445D-05
  0.00000000D+00  0.00000000D+00 -0.11514677D-04 -0.00000000D+00 -0.00000000D+00
  0.44050021D-05  0.00000000D+00  0.00000000D+00 -0.26499248D-04 -0.00000000D+00
 -0.00000000D+00 -0.14172304D-07  0.19434398D-09  0.19434398D-09 -0.00000000D+00
 -0.00000000D+00  0.00000000D+00  0.72086898D-07  0.67171409D-08  0.67171409D-08
  0.00000000D+00  0.00000000D+00 -0.00000000D+00
MO    2     MO 0.0        OCC NO =    0.0000000  ORB. ENERGY =   -0.001062
  0.84617382D-06 -0.31163406D-06 -0.29618174D-02 -0.23749021D-02 -0.53980028D-02
 -0.96531117D-02 -0.12258271D-01  0.22979580D-01  0.37562483D-02 -0.16735992D-03
 -0.15696597D-06  0.00000000D+00 -0.00000000D+00 -0.24877862D-07 -0.00000000D+00
 -0.00000000D+00 -0.43355803D-04  0.00000000D+00  0.00000000D+00  0.62210085D-04
 -0.00000000D+00 -0.00000000D+00 -0.26477203D-08 -0.43001708D-08 -0.43001708D-08
 -0.00000000D+00  0.00000000D+00 -0.00000000D+00 -0.44325546D-07 -0.25491758D-07
 -0.25491758D-07  0.00000000D+00 -0.00000000D+00 -0.00000000D+00 -0.84617382D-06
  0.31163406D-06  0.29618174D-02  0.23749021D-02  0.53980028D-02  0.96531117D-02
  0.12258271D-01 -0.22979580D-01 -0.37562483D-02  0.16735992D-03 -0.15696597D-06
 -0.00000000D+00  0.00000000D+00 -0.24877862D-07  0.00000000D+00  0.00000000D+00
 -0.43355803D-04  0.00000000D+00 -0.00000000D+00  0.62210085D-04 -0.00000000D+00
  0.00000000D+00  0.26477203D-08  0.43001708D-08  0.43001708D-08  0.00000000D+00
 -0.00000000D+00  0.00000000D+00  0.44325546D-07  0.25491758D-07  0.25491758D-07
 -0.00000000D+00 -0.00000000D+00 -0.00000000D+00
MO    3     MO 0.0        OCC NO =    0.0000000  ORB. ENERGY =    0.003245
  0.63191091D-03 -0.23914714D-03 -0.42989641D-02  0.67989286D-02 -0.13879654D-02
  0.50303276D-02  0.23031433D-02 -0.60198062D-02 -0.16560269D-02  0.26085218D-03
 -0.54669476D-04 -0.00000000D+00 -0.00000000D+00  0.76263162D-04  0.00000000D+00
  0.00000000D+00 -0.91741481D-04 -0.00000000D+00 -0.00000000D+00  0.83140881D-04
  0.00000000D+00  0.00000000D+00 -0.11001342D-06 -0.32801809D-08 -0.32801809D-08
 -0.00000000D+00 -0.00000000D+00 -0.00000000D+00  0.31963700D-06 -0.94457378D-07
 -0.94457378D-07  0.00000000D+00  0.00000000D+00  0.00000000D+00  0.63191091D-03
 -0.23914714D-03 -0.42989641D-02  0.67989286D-02 -0.13879654D-02  0.50303276D-02
  0.23031433D-02 -0.60198062D-02 -0.16560269D-02  0.26085218D-03  0.54669476D-04
  0.00000000D+00  0.00000000D+00 -0.76263162D-04 -0.00000000D+00 -0.00000000D+00
  0.91741481D-04  0.00000000D+00  0.00000000D+00 -0.83140881D-04 -0.00000000D+00
 -0.00000000D+00 -0.11001342D-06 -0.32801809D-08 -0.32801809D-08 -0.00000000D+00
 -0.00000000D+00  0.00000000D+00  0.31963700D-06 -0.94457378D-07 -0.94457378D-07
  0.00000000D+00  0.00000000D+00 -0.00000000D+00
MO    4     MO 0.0        OCC NO =    0.0000000  ORB. ENERGY =    0.003952
  0.00000000D+00 -0.00000000D+00 -0.00000000D+00 -0.00000000D+00  0.00000000D+00
  0.00000000D+00  0.00000000D+00 -0.00000000D+00  0.00000000D+00 -0.00000000D+00
 -0.00000000D+00 -0.14476046D-07 -0.42249765D-06  0.00000000D+00  0.22884706D-06
  0.66791597D-05 -0.00000000D+00 -0.38867927D-05 -0.11344040D-03 -0.00000000D+00
 -0.33168265D-05 -0.96805399D-04 -0.00000000D+00  0.00000000D+00 -0.00000000D+00
 -0.61994543D-09 -0.18093770D-07  0.00000000D+00  0.00000000D+00  0.00000000D+00
  0.00000000D+00  0.13066406D-08  0.38135509D-07 -0.00000000D+00  0.00000000D+00
 -0.00000000D+00  0.00000000D+00  0.00000000D+00 -0.00000000D+00 -0.00000000D+00
  0.00000000D+00 -0.00000000D+00 -0.00000000D+00  0.00000000D+00  0.00000000D+00
 -0.14476046D-07 -0.42249765D-06 -0.00000000D+00  0.22884706D-06  0.66791597D-05
  0.00000000D+00 -0.38867927D-05 -0.11344040D-03 -0.00000000D+00 -0.33168265D-05
 -0.96805399D-04 -0.00000000D+00  0.00000000D+00  0.00000000D+00  0.61994543D-09
  0.18093770D-07 -0.00000000D+00  0.00000000D+00  0.00000000D+00  0.00000000D+00
 -0.13066406D-08 -0.38135509D-07  0.00000000D+00
MO    5     MO 0.0        OCC NO =    0.0000000  ORB. ENERGY =    0.003952
 -0.00000000D+00  0.00000000D+00 -0.00000000D+00  0.00000000D+00 -0.00000000D+00
  0.00000000D+00  0.00000000D+00 -0.00000000D+00 -0.00000000D+00  0.00000000D+00
  0.00000000D+00 -0.42249765D-06  0.14476046D-07 -0.00000000D+00  0.66791597D-05
 -0.22884706D-06 -0.00000000D+00 -0.11344040D-03  0.38867927D-05  0.00000000D+00
 -0.96805399D-04  0.33168265D-05  0.00000000D+00 -0.00000000D+00 -0.00000000D+00
 -0.18093770D-07  0.61994543D-09  0.00000000D+00 -0.00000000D+00  0.00000000D+00
  0.00000000D+00  0.38135509D-07 -0.13066406D-08  0.00000000D+00 -0.00000000D+00
  0.00000000D+00  0.00000000D+00 -0.00000000D+00  0.00000000D+00 -0.00000000D+00
 -0.00000000D+00 -0.00000000D+00  0.00000000D+00 -0.00000000D+00 -0.00000000D+00
 -0.42249765D-06  0.14476046D-07  0.00000000D+00  0.66791597D-05 -0.22884706D-06
 -0.00000000D+00 -0.11344040D-03  0.38867927D-05  0.00000000D+00 -0.96805399D-04
  0.33168265D-05  0.00000000D+00 -0.00000000D+00 -0.00000000D+00  0.18093770D-07
 -0.61994543D-09 -0.00000000D+00 -0.00000000D+00 -0.00000000D+00 -0.00000000D+00
 -0.38135509D-07  0.13066406D-08 -0.00000000D+00
MO    6     MO 0.0        OCC NO =    0.0000000  ORB. ENERGY =    0.005427
 -0.10094561D-04 -0.88943727D-05  0.30824844D-01 -0.64627845D-02 -0.51149091D-02
 -0.35738550D-02 -0.69801486D-02  0.11947434D-01  0.15316904D-02  0.56126152D-04
  0.18653714D-05 -0.00000000D+00  0.00000000D+00  0.23428558D-05 -0.00000000D+00
 -0.00000000D+00  0.41438749D-03  0.00000000D+00  0.00000000D+00 -0.26533571D-03
  0.00000000D+00  0.00000000D+00  0.34191305D-07  0.48615203D-07  0.48615203D-07
 -0.00000000D+00  0.00000000D+00 -0.00000000D+00  0.54701340D-06  0.37619278D-06
  0.37619278D-06 -0.00000000D+00 -0.00000000D+00  0.00000000D+00  0.10094561D-04
  0.88943727D-05 -0.30824844D-01  0.64627845D-02  0.51149091D-02  0.35738550D-02
  0.69801486D-02 -0.11947434D-01 -0.15316904D-02 -0.56126152D-04  0.18653714D-05
  0.00000000D+00 -0.00000000D+00  0.23428564D-05  0.00000000D+00  0.00000000D+00
  0.41438749D-03 -0.00000000D+00 -0.00000000D+00 -0.26533571D-03  0.00000000D+00
 -0.00000000D+00 -0.34191305D-07 -0.48615203D-07 -0.48615203D-07 -0.00000000D+00
  0.00000000D+00  0.00000000D+00 -0.54701340D-06 -0.37619278D-06 -0.37619278D-06
 -0.00000000D+00 -0.00000000D+00 -0.00000000D+00
MO    7     MO 0.0        OCC NO =    0.0000000  ORB. ENERGY =    0.006715
 -0.15609407D-02  0.22645837D-02 -0.11148875D-03 -0.69354855D-02  0.49835608D-02
 -0.20369688D-02  0.26613398D-02 -0.27846447D-02  0.39782884D-03 -0.25901645D-03
  0.17647619D-03  0.00000000D+00  0.00000000D+00 -0.19771309D-03 -0.00000000D+00
 -0.00000000D+00  0.18874698D-03  0.00000000D+00  0.00000000D+00  0.45156755D-03
  0.00000000D+00  0.00000000D+00  0.34003127D-06 -0.51371653D-08 -0.51371653D-08
  0.00000000D+00  0.00000000D+00  0.00000000D+00 -0.12203904D-05 -0.14385898D-06
 -0.14385898D-06 -0.00000000D+00 -0.00000000D+00 -0.00000000D+00 -0.15609407D-02
  0.22645837D-02 -0.11148875D-03 -0.69354855D-02  0.49835608D-02 -0.20369688D-02
  0.26613398D-02 -0.27846447D-02  0.39782884D-03 -0.25901645D-03 -0.17647619D-03
 -0.00000000D+00 -0.00000000D+00  0.19771309D-03  0.00000000D+00  0.00000000D+00
 -0.18874698D-03 -0.00000000D+00 -0.00000000D+00 -0.45156755D-03 -0.00000000D+00
 -0.00000000D+00  0.34003127D-06 -0.51371653D-08 -0.51371653D-08  0.00000000D+00
  0.00000000D+00 -0.00000000D+00 -0.12203904D-05 -0.14385898D-06 -0.14385898D-06
 -0.00000000D+00 -0.00000000D+00  0.00000000D+00
MO    8     MO 0.0        OCC NO =    0.0000000  ORB. ENERGY =    0.007060
 -0.00000000D+00 -0.00000000D+00 -0.00000000D+00  0.00000000D+00 -0.00000000D+00
  0.00000000D+00 -0.00000000D+00  0.00000000D+00 -0.00000000D+00  0.00000000D+00
  0.00000000D+00 -0.13672302D-05 -0.26456706D-05  0.00000000D+00 -0.97972097D-04
 -0.18958175D-03 -0.00000000D+00  0.11403962D-03  0.22067336D-03 -0.00000000D+00
  0.25134310D-03  0.48636363D-03  0.00000000D+00 -0.00000000D+00 -0.00000000D+00
 -0.52894548D-08 -0.10235406D-07 -0.00000000D+00  0.00000000D+00 -0.00000000D+00
 -0.00000000D+00 -0.51483645D-06 -0.99623873D-06  0.00000000D+00 -0.00000000D+00
  0.00000000D+00 -0.00000000D+00  0.00000000D+00 -0.00000000D+00  0.00000000D+00
 -0.00000000D+00  0.00000000D+00 -0.00000000D+00  0.00000000D+00 -0.00000000D+00
  0.13672302D-05  0.26456706D-05 -0.00000000D+00  0.97972097D-04  0.18958175D-03
  0.00000000D+00 -0.11403962D-03 -0.22067336D-03  0.00000000D+00 -0.25134310D-03
 -0.48636363D-03  0.00000000D+00 -0.00000000D+00 -0.00000000D+00 -0.52894548D-08
 -0.10235406D-07  0.00000000D+00  0.00000000D+00 -0.00000000D+00 -0.00000000D+00
 -0.51483645D-06 -0.99623873D-06 -0.00000000D+00
MO    9     MO 0.0        OCC NO =    0.0000000  ORB. ENERGY =    0.007060
 -0.00000000D+00  0.00000000D+00 -0.00000000D+00  0.00000000D+00 -0.00000000D+00
  0.00000000D+00 -0.00000000D+00  0.00000000D+00  0.00000000D+00 -0.00000000D+00
  0.00000000D+00  0.26456706D-05 -0.13672302D-05  0.00000000D+00  0.18958175D-03
 -0.97972097D-04 -0.00000000D+00 -0.22067336D-03  0.11403962D-03 -0.00000000D+00
 -0.48636363D-03  0.25134310D-03  0.00000000D+00 -0.00000000D+00 -0.00000000D+00
  0.10235406D-07 -0.52894548D-08  0.00000000D+00 -0.00000000D+00  0.00000000D+00
  0.00000000D+00  0.99623873D-06 -0.51483645D-06 -0.00000000D+00  0.00000000D+00
 -0.00000000D+00  0.00000000D+00  0.00000000D+00 -0.00000000D+00  0.00000000D+00
 -0.00000000D+00  0.00000000D+00 -0.00000000D+00 -0.00000000D+00 -0.00000000D+00
 -0.26456706D-05  0.13672302D-05  0.00000000D+00 -0.18958175D-03  0.97972097D-04
 -0.00000000D+00  0.22067336D-03 -0.11403962D-03  0.00000000D+00  0.48636363D-03
 -0.25134310D-03  0.00000000D+00 -0.00000000D+00 -0.00000000D+00  0.10235406D-07
 -0.52894548D-08 -0.00000000D+00 -0.00000000D+00 -0.00000000D+00 -0.00000000D+00
  0.99623873D-06 -0.51483645D-06  0.00000000D+00
MO   10     MO 0.0        OCC NO =    0.0000000  ORB. ENERGY =    0.010124
  0.00000000D+00 -0.00000000D+00 -0.00000000D+00 -0.00000000D+00 -0.00000000D+00
 -0.00000000D+00 -0.00000000D+00  0.00000000D+00  0.00000000D+00  0.00000000D+00
 -0.00000000D+00  0.31824437D-07 -0.53406029D-06  0.00000000D+00 -0.50165937D-06
  0.84185609D-05 -0.00000000D+00  0.10024718D-04 -0.16822905D-03 -0.00000000D+00
 -0.44117771D-04  0.74035891D-03 -0.00000000D+00 -0.00000000D+00 -0.00000000D+00
  0.10967169D-08 -0.18404481D-07  0.00000000D+00  0.00000000D+00  0.00000000D+00
  0.00000000D+00 -0.10280512D-08  0.17252108D-07  0.00000000D+00  0.00000000D+00
 -0.00000000D+00  0.00000000D+00  0.00000000D+00  0.00000000D+00 -0.00000000D+00
  0.00000000D+00 -0.00000000D+00 -0.00000000D+00  0.00000000D+00  0.00000000D+00
  0.31824437D-07 -0.53406029D-06 -0.00000000D+00 -0.50165937D-06  0.84185609D-05
 -0.00000000D+00  0.10024718D-04 -0.16822905D-03 -0.00000000D+00 -0.44117771D-04
  0.74035891D-03 -0.00000000D+00  0.00000000D+00  0.00000000D+00 -0.10967169D-08
  0.18404481D-07 -0.00000000D+00  0.00000000D+00 -0.00000000D+00 -0.00000000D+00
  0.10280512D-08 -0.17252108D-07 -0.00000000D+00
MO   11     MO 0.0        OCC NO =    0.0000000  ORB. ENERGY =    0.010124
 -0.00000000D+00 -0.00000000D+00 -0.00000000D+00 -0.00000000D+00  0.00000000D+00
  0.00000000D+00 -0.00000000D+00  0.00000000D+00  0.00000000D+00 -0.00000000D+00
  0.00000000D+00  0.53406029D-06  0.31824437D-07  0.00000000D+00 -0.84185609D-05
 -0.50165937D-06 -0.00000000D+00  0.16822905D-03  0.10024718D-04 -0.00000000D+00
 -0.74035891D-03 -0.44117771D-04  0.00000000D+00 -0.00000000D+00 -0.00000000D+00
  0.18404481D-07  0.10967169D-08  0.00000000D+00  0.00000000D+00 -0.00000000D+00
 -0.00000000D+00 -0.17252108D-07 -0.10280512D-08 -0.00000000D+00 -0.00000000D+00
 -0.00000000D+00  0.00000000D+00  0.00000000D+00 -0.00000000D+00  0.00000000D+00
 -0.00000000D+00 -0.00000000D+00  0.00000000D+00 -0.00000000D+00 -0.00000000D+00
  0.53406029D-06  0.31824437D-07 -0.00000000D+00 -0.84185609D-05 -0.50165937D-06
 -0.00000000D+00  0.16822905D-03  0.10024718D-04 -0.00000000D+00 -0.74035891D-03
 -0.44117771D-04  0.00000000D+00 -0.00000000D+00 -0.00000000D+00 -0.18404481D-07
 -0.10967169D-08 -0.00000000D+00 -0.00000000D+00 -0.00000000D+00 -0.00000000D+00
  0.17252108D-07  0.10280512D-08  0.00000000D+00
MO   12     MO 0.0        OCC NO =    0.0000000  ORB. ENERGY =    0.010441
 -0.27962999D-05  0.77316895D-04  0.70276694D-01  0.19596899D-01  0.17927631D-03
  0.18349962D-02  0.17514715D-02 -0.34900392D-02 -0.66446821D-03  0.52869201D-04
  0.52691527D-06 -0.00000000D+00  0.00000000D+00 -0.86173295D-05 -0.00000000D+00
 -0.00000000D+00  0.11816875D-02  0.00000000D+00 -0.00000000D+00  0.22363768D-02
 -0.00000000D+00  0.00000000D+00 -0.96666131D-08  0.30564921D-07  0.30564921D-07
 -0.00000000D+00  0.00000000D+00 -0.00000000D+00  0.11223443D-06 -0.30345782D-06
 -0.30345782D-06 -0.00000000D+00 -0.00000000D+00  0.00000000D+00  0.27962999D-05
 -0.77316895D-04 -0.70276694D-01 -0.19596899D-01 -0.17927631D-03 -0.18349962D-02
 -0.17514715D-02  0.34900392D-02  0.66446821D-03 -0.52869201D-04  0.52691527D-06
  0.00000000D+00 -0.00000000D+00 -0.86173295D-05  0.00000000D+00  0.00000000D+00
  0.11816875D-02 -0.00000000D+00 -0.00000000D+00  0.22363768D-02  0.00000000D+00
  0.00000000D+00  0.96666131D-08 -0.30564921D-07 -0.30564921D-07 -0.00000000D+00
  0.00000000D+00  0.00000000D+00 -0.11223443D-06  0.30345782D-06  0.30345782D-06
 -0.00000000D+00 -0.00000000D+00 -0.00000000D+00
MO   13     MO 0.0        OCC NO =    0.0000000  ORB. ENERGY =    0.013152
  0.24454272D-04 -0.10891409D-03  0.13638294D-02 -0.14096253D-01  0.25554813D-01
 -0.40522983D-02  0.13951810D-01 -0.18011992D-01  0.80194439D-04 -0.86788868D-03
  0.24514237D-04  0.00000000D+00  0.00000000D+00  0.49459225D-04 -0.00000000D+00
 -0.00000000D+00  0.58633128D-04  0.00000000D+00  0.00000000D+00 -0.22313110D-03
 -0.00000000D+00 -0.00000000D+00  0.38216405D-07 -0.89702890D-08 -0.89702890D-08
  0.00000000D+00  0.00000000D+00  0.00000000D+00  0.13163145D-06 -0.18282032D-06
 -0.18282032D-06 -0.00000000D+00 -0.00000000D+00 -0.00000000D+00  0.24454272D-04
 -0.10891409D-03  0.13638294D-02 -0.14096253D-01  0.25554813D-01 -0.40522983D-02
  0.13951810D-01 -0.18011992D-01  0.80194439D-04 -0.86788868D-03 -0.24514237D-04
 -0.00000000D+00 -0.00000000D+00 -0.49459225D-04  0.00000000D+00  0.00000000D+00
 -0.58633128D-04 -0.00000000D+00 -0.00000000D+00  0.22313110D-03  0.00000000D+00
  0.00000000D+00  0.38216405D-07 -0.89702890D-08 -0.89702890D-08  0.00000000D+00
  0.00000000D+00 -0.00000000D+00  0.13163145D-06 -0.18282032D-06 -0.18282032D-06
 -0.00000000D+00 -0.00000000D+00  0.00000000D+00
MO   14     MO 0.0        OCC NO =    0.0000000  ORB. ENERGY =    0.015242
 -0.11630797D-04 -0.10071250D-03 -0.11970852D-01 -0.31624552D-01  0.24058069D-01
 -0.45320281D-02  0.12147714D-01 -0.15219928D-01  0.25059528D-03 -0.79242216D-03
  0.21277045D-05  0.00000000D+00 -0.00000000D+00  0.15265793D-04  0.00000000D+00
  0.00000000D+00 -0.46074571D-03 -0.00000000D+00  0.00000000D+00 -0.60614709D-03
  0.00000000D+00 -0.00000000D+00  0.57267059D-07  0.38049676D-07  0.38049676D-07
  0.00000000D+00 -0.00000000D+00  0.00000000D+00  0.74305262D-06  0.89625861D-06
  0.89625861D-06  0.00000000D+00  0.00000000D+00 -0.00000000D+00  0.11630797D-04
  0.10071250D-03  0.11970852D-01  0.31624552D-01 -0.24058069D-01  0.45320281D-02
 -0.12147714D-01  0.15219928D-01 -0.25059528D-03  0.79242216D-03  0.21277045D-05
 -0.00000000D+00  0.00000000D+00  0.15265793D-04 -0.00000000D+00 -0.00000000D+00
 -0.46074571D-03  0.00000000D+00 -0.00000000D+00 -0.60614709D-03 -0.00000000D+00
  0.00000000D+00 -0.57267059D-07 -0.38049676D-07 -0.38049676D-07  0.00000000D+00
 -0.00000000D+00 -0.00000000D+00 -0.74305262D-06 -0.89625861D-06 -0.89625861D-06
  0.00000000D+00  0.00000000D+00  0.00000000D+00
MO   15     MO 0.0        OCC NO =    0.0000000  ORB. ENERGY =    0.015286
 -0.34374286D-02  0.56465700D-02 -0.66528155D-02  0.60415687D-02 -0.11253380D-02
  0.51188307D-03 -0.26230527D-03  0.16314137D-03 -0.97490668D-04  0.39261067D-04
  0.40453775D-03  0.00000000D+00  0.00000000D+00 -0.41851225D-03 -0.00000000D+00
 -0.00000000D+00  0.45618702D-03  0.00000000D+00  0.00000000D+00 -0.84255109D-03
 -0.00000000D+00 -0.00000000D+00  0.77500331D-06 -0.16329440D-07 -0.16329440D-07
  0.00000000D+00  0.00000000D+00  0.00000000D+00 -0.27471881D-05 -0.48245603D-06
 -0.48245603D-06 -0.00000000D+00 -0.00000000D+00 -0.00000000D+00 -0.34374286D-02
  0.56465700D-02 -0.66528155D-02  0.60415687D-02 -0.11253380D-02  0.51188307D-03
 -0.26230527D-03  0.16314137D-03 -0.97490668D-04  0.39261067D-04 -0.40453775D-03
 -0.00000000D+00 -0.00000000D+00  0.41851225D-03  0.00000000D+00  0.00000000D+00
 -0.45618702D-03 -0.00000000D+00 -0.00000000D+00  0.84255109D-03  0.00000000D+00
  0.00000000D+00  0.77500331D-06 -0.16329440D-07 -0.16329440D-07  0.00000000D+00
  0.00000000D+00 -0.00000000D+00 -0.27471881D-05 -0.48245603D-06 -0.48245603D-06
 -0.00000000D+00 -0.00000000D+00  0.00000000D+00
MO   16     MO 0.0        OCC NO =    0.0000000  ORB. ENERGY =    0.015381
  0.00000000D+00  0.00000000D+00 -0.00000000D+00  0.00000000D+00 -0.00000000D+00
  0.00000000D+00 -0.00000000D+00  0.00000000D+00 -0.00000000D+00  0.00000000D+00
 -0.00000000D+00  0.46214483D-05 -0.14609406D-05 -0.00000000D+00  0.33035095D-03
 -0.10443113D-03  0.00000000D+00 -0.52937042D-03  0.16734553D-03 -0.00000000D+00
  0.11396201D-02 -0.36025875D-03 -0.00000000D+00 -0.00000000D+00 -0.00000000D+00
  0.19336446D-07 -0.61126724D-08  0.00000000D+00 -0.00000000D+00 -0.00000000D+00
 -0.00000000D+00  0.17008499D-05 -0.53767573D-06 -0.00000000D+00  0.00000000D+00
 -0.00000000D+00 -0.00000000D+00 -0.00000000D+00  0.00000000D+00 -0.00000000D+00
  0.00000000D+00 -0.00000000D+00  0.00000000D+00 -0.00000000D+00  0.00000000D+00
 -0.46214483D-05  0.14609406D-05  0.00000000D+00 -0.33035095D-03  0.10443113D-03
 -0.00000000D+00  0.52937042D-03 -0.16734553D-03  0.00000000D+00 -0.11396201D-02
  0.36025875D-03 -0.00000000D+00 -0.00000000D+00 -0.00000000D+00  0.19336446D-07
 -0.61126724D-08 -0.00000000D+00 -0.00000000D+00 -0.00000000D+00 -0.00000000D+00
  0.17008499D-05 -0.53767573D-06  0.00000000D+00
MO   17     MO 0.0        OCC NO =    0.0000000  ORB. ENERGY =    0.015381
 -0.00000000D+00 -0.00000000D+00  0.00000000D+00 -0.00000000D+00  0.00000000D+00
 -0.00000000D+00  0.00000000D+00 -0.00000000D+00  0.00000000D+00 -0.00000000D+00
 -0.00000000D+00 -0.14609404D-05 -0.46214483D-05  0.00000000D+00 -0.10443113D-03
 -0.33035095D-03 -0.00000000D+00  0.16734553D-03  0.52937042D-03  0.00000000D+00
 -0.36025875D-03 -0.11396201D-02 -0.00000000D+00  0.00000000D+00  0.00000000D+00
 -0.61126724D-08 -0.19336446D-07 -0.00000000D+00  0.00000000D+00  0.00000000D+00
  0.00000000D+00 -0.53767573D-06 -0.17008499D-05  0.00000000D+00  0.00000000D+00
 -0.00000000D+00  0.00000000D+00 -0.00000000D+00  0.00000000D+00 -0.00000000D+00
  0.00000000D+00 -0.00000000D+00  0.00000000D+00 -0.00000000D+00  0.00000000D+00
  0.14609404D-05  0.46214483D-05 -0.00000000D+00  0.10443113D-03  0.33035095D-03
  0.00000000D+00 -0.16734553D-03 -0.52937042D-03 -0.00000000D+00  0.36025875D-03
  0.11396201D-02 -0.00000000D+00  0.00000000D+00  0.00000000D+00 -0.61126724D-08
 -0.19336446D-07  0.00000000D+00  0.00000000D+00  0.00000000D+00  0.00000000D+00
 -0.53767573D-06 -0.17008499D-05 -0.00000000D+00
MO   18     MO 0.0        OCC NO =    0.0000000  ORB. ENERGY =    0.022168
  0.34280235D-04  0.33816429D-03  0.13528135D+00 -0.55172013D-01  0.19274160D-01
 -0.52345418D-02  0.67714748D-02 -0.71482569D-02  0.81441908D-03 -0.59799993D-03
 -0.63132538D-05 -0.00000000D+00  0.00000000D+00 -0.42798907D-04 -0.00000000D+00
  0.00000000D+00  0.28083227D-02  0.00000000D+00  0.00000000D+00 -0.29860106D-02
  0.00000000D+00 -0.00000000D+00 -0.18862679D-06 -0.10902927D-06 -0.10902927D-06
 -0.00000000D+00  0.00000000D+00 -0.00000000D+00 -0.20151099D-05 -0.27276015D-05
 -0.27276015D-05 -0.00000000D+00  0.00000000D+00  0.00000000D+00 -0.34280235D-04
 -0.33816429D-03 -0.13528135D+00  0.55172013D-01 -0.19274160D-01  0.52345418D-02
 -0.67714748D-02  0.71482569D-02 -0.81441908D-03  0.59799993D-03 -0.63132538D-05
  0.00000000D+00 -0.00000000D+00 -0.42798907D-04  0.00000000D+00 -0.00000000D+00
  0.28083227D-02 -0.00000000D+00 -0.00000000D+00 -0.29860106D-02  0.00000000D+00
  0.00000000D+00  0.18862679D-06  0.10902927D-06  0.10902927D-06 -0.00000000D+00
  0.00000000D+00  0.00000000D+00  0.20151099D-05  0.27276015D-05  0.27276015D-05
 -0.00000000D+00  0.00000000D+00 -0.00000000D+00
MO   19     MO 0.0        OCC NO =    0.0000000  ORB. ENERGY =    0.028075
  0.30866832D-02  0.11586786D-02 -0.17027758D-01  0.19290178D-01 -0.12571815D-01
 -0.47898993D-02 -0.35004182D-02  0.75903245D-02  0.17327610D-02 -0.19754890D-03
 -0.85506911D-04 -0.00000000D+00 -0.00000000D+00  0.45261094D-03  0.00000000D+00
  0.00000000D+00  0.16038056D-04 -0.00000000D+00 -0.00000000D+00 -0.97152596D-04
  0.00000000D+00  0.00000000D+00 -0.24803774D-06 -0.77831927D-07 -0.77831927D-07
 -0.00000000D+00 -0.00000000D+00 -0.00000000D+00  0.92587533D-06 -0.17224866D-05
 -0.17224866D-05  0.00000000D+00  0.00000000D+00  0.00000000D+00  0.30866832D-02
  0.11586786D-02 -0.17027758D-01  0.19290178D-01 -0.12571815D-01 -0.47898993D-02
 -0.35004182D-02  0.75903245D-02  0.17327610D-02 -0.19754890D-03  0.85506911D-04
  0.00000000D+00  0.00000000D+00 -0.45261094D-03 -0.00000000D+00 -0.00000000D+00
 -0.16038056D-04  0.00000000D+00  0.00000000D+00  0.97152596D-04 -0.00000000D+00
 -0.00000000D+00 -0.24803774D-06 -0.77831927D-07 -0.77831927D-07 -0.00000000D+00
 -0.00000000D+00  0.00000000D+00  0.92587533D-06 -0.17224866D-05 -0.17224866D-05
 -0.00000000D+00  0.00000000D+00 -0.00000000D+00
MO   20     MO 0.0        OCC NO =    0.0000000  ORB. ENERGY =    0.036300
 -0.17102240D-03 -0.34503718D-03 -0.36601044D-02 -0.10433850D-02 -0.23230554D-02
  0.12488152D-01 -0.25300791D-02 -0.25595663D-02 -0.30603829D-02  0.85365284D-03
  0.31073640D-04 -0.00000000D+00 -0.00000000D+00  0.31213909D-04 -0.00000000D+00
 -0.00000000D+00 -0.66443268D-03  0.00000000D+00  0.00000000D+00  0.81021048D-03
 -0.00000000D+00 -0.00000000D+00  0.83220614D-06  0.84578257D-06  0.84578257D-06
  0.00000000D+00 -0.00000000D+00 -0.00000000D+00  0.73434463D-05  0.70699590D-05
  0.70699590D-05 -0.00000000D+00 -0.00000000D+00  0.00000000D+00  0.17102240D-03
  0.34503718D-03  0.36601044D-02  0.10433850D-02  0.23230554D-02 -0.12488152D-01
  0.25300791D-02  0.25595663D-02  0.30603829D-02 -0.85365284D-03  0.31073640D-04
  0.00000000D+00  0.00000000D+00  0.31213909D-04  0.00000000D+00  0.00000000D+00
 -0.66443268D-03 -0.00000000D+00 -0.00000000D+00  0.81021048D-03  0.00000000D+00
  0.00000000D+00 -0.83220614D-06 -0.84578257D-06 -0.84578257D-06 -0.00000000D+00
 -0.00000000D+00 -0.00000000D+00 -0.73434463D-05 -0.70699590D-05 -0.70699590D-05
 -0.00000000D+00 -0.00000000D+00  0.00000000D+00
MO   21     MO 0.0        OCC NO =    0.0000000  ORB. ENERGY =    0.037815
 -0.00000000D+00  0.00000000D+00  0.00000000D+00 -0.00000000D+00  0.00000000D+00
 -0.00000000D+00  0.00000000D+00  0.00000000D+00  0.00000000D+00 -0.00000000D+00
  0.00000000D+00  0.00000000D+00  0.00000000D+00 -0.00000000D+00  0.00000000D+00
  0.00000000D+00  0.00000000D+00  0.00000000D+00 -0.00000000D+00 -0.00000000D+00
 -0.00000000D+00  0.00000000D+00  0.00000000D+00  0.44421435D-07 -0.44421435D-07
 -0.00000000D+00 -0.00000000D+00  0.74925956D-08 -0.00000000D+00 -0.61416875D-06
  0.61416875D-06  0.00000000D+00  0.00000000D+00 -0.10359229D-06 -0.00000000D+00
  0.00000000D+00 -0.00000000D+00  0.00000000D+00 -0.00000000D+00  0.00000000D+00
 -0.00000000D+00 -0.00000000D+00 -0.00000000D+00  0.00000000D+00 -0.00000000D+00
 -0.00000000D+00 -0.00000000D+00  0.00000000D+00 -0.00000000D+00 -0.00000000D+00
  0.00000000D+00 -0.00000000D+00  0.00000000D+00 -0.00000000D+00  0.00000000D+00
 -0.00000000D+00  0.00000000D+00  0.44421435D-07 -0.44421435D-07  0.00000000D+00
  0.00000000D+00  0.74925956D-08 -0.00000000D+00 -0.61416875D-06  0.61416875D-06
  0.00000000D+00  0.00000000D+00 -0.10359229D-06
MO   22     MO 0.0        OCC NO =    0.0000000  ORB. ENERGY =    0.037815
 -0.00000000D+00  0.00000000D+00  0.00000000D+00  0.00000000D+00  0.00000000D+00
 -0.00000000D+00  0.00000000D+00  0.00000000D+00 -0.00000000D+00  0.00000000D+00
  0.00000000D+00  0.00000000D+00 -0.00000000D+00 -0.00000000D+00  0.00000000D+00
 -0.00000000D+00  0.00000000D+00 -0.00000000D+00  0.00000000D+00 -0.00000000D+00
  0.00000000D+00 -0.00000000D+00  0.00000000D+00  0.37462980D-08 -0.37462980D-08
  0.00000000D+00 -0.00000000D+00 -0.88842871D-07 -0.00000000D+00 -0.51796153D-07
  0.51796153D-07  0.00000000D+00 -0.00000000D+00  0.12283375D-05 -0.00000000D+00
  0.00000000D+00 -0.00000000D+00  0.00000000D+00  0.00000000D+00 -0.00000000D+00
  0.00000000D+00 -0.00000000D+00 -0.00000000D+00 -0.00000000D+00 -0.00000000D+00
 -0.00000000D+00  0.00000000D+00  0.00000000D+00 -0.00000000D+00  0.00000000D+00
  0.00000000D+00  0.00000000D+00 -0.00000000D+00 -0.00000000D+00  0.00000000D+00
  0.00000000D+00  0.00000000D+00  0.37462980D-08 -0.37462980D-08 -0.00000000D+00
  0.00000000D+00 -0.88842871D-07 -0.00000000D+00 -0.51796153D-07  0.51796153D-07
  0.00000000D+00 -0.00000000D+00  0.12283375D-05
MO   23     MO 0.0        OCC NO =    0.0000000  ORB. ENERGY =    0.042199
 -0.00000000D+00  0.00000000D+00 -0.00000000D+00  0.00000000D+00  0.00000000D+00
 -0.00000000D+00 -0.00000000D+00  0.00000000D+00  0.00000000D+00 -0.00000000D+00
  0.00000000D+00 -0.61291003D-06  0.14351974D-05 -0.00000000D+00  0.19605310D-04
 -0.45908025D-04  0.00000000D+00 -0.81337726D-04  0.19046138D-03 -0.00000000D+00
  0.12169530D-03 -0.28496315D-03  0.00000000D+00 -0.00000000D+00 -0.00000000D+00
 -0.21236933D-06  0.49728655D-06 -0.00000000D+00 -0.00000000D+00 -0.00000000D+00
 -0.00000000D+00  0.10488904D-05 -0.24560941D-05  0.00000000D+00 -0.00000000D+00
  0.00000000D+00 -0.00000000D+00  0.00000000D+00  0.00000000D+00 -0.00000000D+00
  0.00000000D+00 -0.00000000D+00 -0.00000000D+00  0.00000000D+00 -0.00000000D+00
 -0.61291003D-06  0.14351974D-05  0.00000000D+00  0.19605310D-04 -0.45908025D-04
 -0.00000000D+00 -0.81337726D-04  0.19046138D-03  0.00000000D+00  0.12169530D-03
 -0.28496315D-03  0.00000000D+00 -0.00000000D+00 -0.00000000D+00  0.21236933D-06
 -0.49728655D-06  0.00000000D+00 -0.00000000D+00 -0.00000000D+00 -0.00000000D+00
 -0.10488904D-05  0.24560941D-05 -0.00000000D+00
MO   24     MO 0.0        OCC NO =    0.0000000  ORB. ENERGY =    0.042199
  0.00000000D+00 -0.00000000D+00  0.00000000D+00 -0.00000000D+00 -0.00000000D+00
  0.00000000D+00 -0.00000000D+00 -0.00000000D+00 -0.00000000D+00  0.00000000D+00
 -0.00000000D+00 -0.14351974D-05 -0.61291003D-06  0.00000000D+00  0.45908025D-04
  0.19605310D-04 -0.00000000D+00 -0.19046138D-03 -0.81337726D-04  0.00000000D+00
  0.28496315D-03  0.12169530D-03 -0.00000000D+00 -0.00000000D+00 -0.00000000D+00
 -0.49728655D-06 -0.21236933D-06 -0.00000000D+00  0.00000000D+00  0.00000000D+00
  0.00000000D+00  0.24560941D-05  0.10488904D-05  0.00000000D+00  0.00000000D+00
 -0.00000000D+00  0.00000000D+00 -0.00000000D+00  0.00000000D+00 -0.00000000D+00
  0.00000000D+00 -0.00000000D+00  0.00000000D+00 -0.00000000D+00  0.00000000D+00
 -0.14351974D-05 -0.61291003D-06 -0.00000000D+00  0.45908025D-04  0.19605310D-04