[Molden Format]
[Atoms] AU
E+       1       4     0.00000000     0.00000000     0.00000000
E+       2       4    49.00000000     0.00000000     0.00000000
[GTO]
  1 0
s  1 1.00
   1.0000000000E-04   1.0000000000E+00
s  1 1.00
   3.0000000000E-04   1.0000000000E+00
s  1 1.00
   9.0000000000E-04   1.0000000000E+00
s  1 1.00
   2.7000000000E-03   1.0000000000E+00
s  1 1.00
   8.1000000000E-03   1.0000000000E+00
s  1 1.00
   2.4300000000E-02   1.0000000000E+00
s  1 1.00
   7.2900000000E-02   1.0000000000E+00
s  1 1.00
   2.1870000000E-01   1.0000000000E+00
s  1 1.00
   6.5610000000E-01   1.0000000000E+00
s  1 1.00
   1.9683000000E+00   1.0000000000E+00
p  1 1.00
   1.0000000000E-04   1.0000000000E+00
p  1 1.00
   3.0000000000E-04   1.0000000000E+00
p  1 1.00
   9.0000000000E-04   1.0000000000E+00
p  1 1.00
   2.7000000000E-03   1.0000000000E+00
d  1 1.00
   1.0000000000E-04   1.0000000000E+00
d  1 1.00
   3.0000000000E-04   1.0000000000E+00
 
  2 0
s  1 1.00
   1.0000000000E-04   1.0000000000E+00
s  1 1.00
   3.0000000000E-04   1.0000000000E+00
s  1 1.00
   9.0000000000E-04   1.0000000000E+00
s  1 1.00
   2.7000000000E-03   1.0000000000E+00
s  1 1.00
   8.1000000000E-03   1.0000000000E+00
s  1 1.00
   2.4300000000E-02   1.0000000000E+00
s  1 1.00
   7.2900000000E-02   1.0000000000E+00
s  1 1.00
   2.1870000000E-01   1.0000000000E+00
s  1 1.00
   6.5610000000E-01   1.0000000000E+00
s  1 1.00
   1.9683000000E+00   1.0000000000E+00
p  1 1.00
   1.0000000000E-04   1.0000000000E+00
p  1 1.00
   3.0000000000E-04   1.0000000000E+00
p  1 1.00
   9.0000000000E-04   1.0000000000E+00
p  1 1.00
   2.7000000000E-03   1.0000000000E+00
d  1 1.00
   1.0000000000E-04   1.0000000000E+00
d  1 1.00
   3.0000000000E-04   1.0000000000E+00
 
 
[MO]
Ene=    -2.27180E-04
Spin= Alpha
Occup=   1.0000000000
   1       0.04816642
   2       0.07407926
   3      -0.13646828
   4      -0.22564172
   5      -0.22428380
   6      -0.17905207
   7      -0.10661980
   8       0.08697879
   9       0.00608164
  10      -0.00010342
  11      -0.01373890
  12       0.00000000
  13       0.00000000
  14      -0.00703362
  15       0.00000000
  16       0.00000000
  17      -0.00896559
  18       0.00000000
  19      -0.00000000
  20      -0.17802339
  21      -0.00000000
  22       0.00000000
  23      -0.01004570
  24      -0.00623282
  25      -0.00623282
  26       0.00000000
  27       0.00000000
  28      -0.00000000
  29      -0.03569176
  30      -0.02303380
  31      -0.02303380
  32       0.00000000
  33       0.00000000
  34       0.00000000
  35       0.04816642
  36       0.07407926
  37      -0.13646828
  38      -0.22564172
  39      -0.22428380
  40      -0.17905207
  41      -0.10661980
  42       0.08697879
  43       0.00608164
  44      -0.00010342
  45       0.01373890
  46      -0.00000000
  47      -0.00000000
  48       0.00703362
  49      -0.00000000
  50      -0.00000000
  51       0.00896559
  52      -0.00000000
  53       0.00000000
  54       0.17802339
  55       0.00000000
  56      -0.00000000
  57      -0.01004570
  58      -0.00623282
  59      -0.00623282
  60       0.00000000
  61       0.00000000
  62       0.00000000
  63      -0.03569176
  64      -0.02303380
  65      -0.02303380
  66       0.00000000
  67       0.00000000
  68      -0.00000000
Ene=     1.71675E-04
Spin= Alpha
Occup=   0.0000000000
   1      -0.02123172
   2       1.41137390
   3      -0.00803446
   4       0.31558662
   5       0.22801272
   6       0.20563953
   7       0.11381694
   8      -0.09440558
   9      -0.00688823
  10       0.00015305
  11       0.01978130
  12       0.00000000
  13       0.00000000
  14       0.71944163
  15      -0.00000000
  16      -0.00000000
  17      -0.09726076
  18      -0.00000000
  19       0.00000000
  20       0.20086280
  21       0.00000000
  22      -0.00000000
  23       0.01811350
  24       0.01633154
  25       0.01633154
  26       0.00000000
  27       0.00000000
  28      -0.00000000
  29       0.22273323
  30       0.04281205
  31       0.04281205
  32       0.00000000
  33       0.00000000
  34      -0.00000000
  35       0.02123172
  36      -1.41137390
  37       0.00803446
  38      -0.31558662
  39      -0.22801272
  40      -0.20563953
  41      -0.11381694
  42       0.09440558
  43       0.00688823
  44      -0.00015305
  45       0.01978130
  46      -0.00000000
  47      -0.00000000
  48       0.71944163
  49       0.00000000
  50       0.00000000
  51      -0.09726076
  52      -0.00000000
  53      -0.00000000
  54       0.20086280
  55       0.00000000
  56       0.00000000
  57      -0.01811350
  58      -0.01633154
  59      -0.01633154
  60       0.00000000
  61       0.00000000
  62       0.00000000
  63      -0.22273323
  64      -0.04281205
  65      -0.04281205
  66      -0.00000000
  67      -0.00000000
  68      -0.00000000
Ene=     5.18642E-03
Spin= Alpha
Occup=   0.0000000000
   1       0.61373423
   2       0.16139994
   3      -0.93299628
   4       0.55772675
   5       0.10628993
   6       0.14683870
   7       0.05718491
   8      -0.05183018
   9      -0.00457884
  10       0.00019437
  11      -0.84315520
  12       0.00000000
  13       0.00000000
  14       0.28733674
  15       0.00000000
  16      -0.00000000
  17      -0.47747568
  18      -0.00000000
  19       0.00000000
  20       0.07152600
  21      -0.00000000
  22      -0.00000000
  23      -0.38887900
  24      -0.02960602
  25      -0.02960602
  26       0.00000000
  27       0.00000000
  28      -0.00000000
  29      -0.01682220
  30      -0.09679937
  31      -0.09679937
  32       0.00000000
  33      -0.00000000
  34       0.00000000
  35       0.61373423
  36       0.16139994
  37      -0.93299628
  38       0.55772675
  39       0.10628993
  40       0.14683870
  41       0.05718491
  42      -0.05183018
  43      -0.00457884
  44       0.00019437
  45       0.84315520
  46      -0.00000000
  47      -0.00000000
  48      -0.28733674
  49      -0.00000000
  50       0.00000000
  51       0.47747568
  52       0.00000000
  53      -0.00000000
  54      -0.07152600
  55      -0.00000000
  56       0.00000000
  57      -0.38887900
  58      -0.02960602
  59      -0.02960602
  60       0.00000000
  61       0.00000000
  62      -0.00000000
  63      -0.01682220
  64      -0.09679937
  65      -0.09679937
  66       0.00000000
  67      -0.00000000
  68       0.00000000
Ene=     1.12814E-02
Spin= Alpha
Occup=   0.0000000000
   1      -0.02844734
   2       5.10216704
   3      -1.03752932
   4      -0.32092040
   5       0.59482436
   6       0.06826763
   7       0.09559799
   8      -0.06773727
   9      -0.00309098
  10      -0.00016548
  11      -0.09572506
  12      -0.00000000
  13       0.00000000
  14       2.38717495
  15      -0.00000000
  16      -0.00000000
  17      -0.32976927
  18       0.00000000
  19       0.00000000
  20      -0.45811604
  21       0.00000000
  22       0.00000000
  23      -0.08459550
  24      -0.06548172
  25      -0.06548172
  26      -0.00000000
  27       0.00000000
  28       0.00000000
  29       0.47662269
  30      -0.12212453
  31      -0.12212453
  32      -0.00000000
  33      -0.00000000
  34      -0.00000000
  35       0.02844734
  36      -5.10216704
  37       1.03752932
  38       0.32092040
  39      -0.59482436
  40      -0.06826763
  41      -0.09559799
  42       0.06773727
  43       0.00309098
  44       0.00016548
  45      -0.09572506
  46       0.00000000
  47      -0.00000000
  48       2.38717495
  49       0.00000000
  50       0.00000000
  51      -0.32976927
  52       0.00000000
  53      -0.00000000
  54      -0.45811604
  55       0.00000000
  56       0.00000000
  57       0.08459550
  58       0.06548172
  59       0.06548172
  60       0.00000000
  61       0.00000000
  62      -0.00000000
  63      -0.47662269
  64       0.12212453
  65       0.12212453
  66      -0.00000000
  67      -0.00000000
  68      -0.00000000
Ene=     1.14574E-02
Spin= Alpha
Occup=   0.0000000000
   1      -0.00000000
   2      -0.00000000
   3      -0.00000000
   4      -0.00000000
   5       0.00000000
   6       0.00000000
   7       0.00000000
   8      -0.00000000
   9      -0.00000000
  10       0.00000000
  11       0.00000000
  12      -0.04504180
  13       0.00521397
  14      -0.00000000
  15       0.12131822
  16      -0.01404360
  17      -0.00000000
  18      -0.40789690
  19       0.04721747
  20      -0.00000000
  21      -0.33400204
  22       0.03866353
  23       0.00000000
  24      -0.00000000
  25      -0.00000000
  26       0.04328802
  27      -0.00501095
  28      -0.00000000
  29      -0.00000000
  30      -0.00000000
  31      -0.00000000
  32      -0.07807604
  33       0.00903795
  34       0.00000000
  35      -0.00000000
  36       0.00000000
  37       0.00000000
  38       0.00000000
  39      -0.00000000
  40      -0.00000000
  41      -0.00000000
  42       0.00000000
  43      -0.00000000
  44       0.00000000
  45      -0.00000000
  46      -0.04504180
  47       0.00521397
  48      -0.00000000
  49       0.12131822
  50      -0.01404360
  51      -0.00000000
  52      -0.40789690
  53       0.04721747
  54      -0.00000000
  55      -0.33400204
  56       0.03866353
  57       0.00000000
  58       0.00000000
  59       0.00000000
  60      -0.04328802
  61       0.00501095
  62       0.00000000
  63       0.00000000
  64       0.00000000
  65       0.00000000
  66       0.07807604
  67      -0.00903795
  68      -0.00000000
Ene=     1.14574E-02
Spin= Alpha
Occup=   0.0000000000
   1      -0.00000000
   2      -0.00000000
   3      -0.00000000
   4      -0.00000000
   5       0.00000000
   6       0.00000000
   7       0.00000000
   8      -0.00000000
   9      -0.00000000
  10      -0.00000000
  11       0.00000000
  12      -0.00521397
  13      -0.04504180
  14      -0.00000000
  15       0.01404360
  16       0.12131822
  17       0.00000000
  18      -0.04721747
  19      -0.40789690
  20      -0.00000000
  21      -0.03866353
  22      -0.33400204
  23       0.00000000
  24      -0.00000000
  25      -0.00000000
  26       0.00501095
  27       0.04328802
  28      -0.00000000
  29      -0.00000000
  30      -0.00000000
  31      -0.00000000
  32      -0.00903795
  33      -0.07807604
  34       0.00000000
  35      -0.00000000
  36       0.00000000
  37       0.00000000
  38       0.00000000
  39      -0.00000000
  40      -0.00000000
  41      -0.00000000
  42       0.00000000
  43       0.00000000
  44       0.00000000
  45      -0.00000000
  46      -0.00521397
  47      -0.04504180
  48      -0.00000000
  49       0.01404360
  50       0.12131822
  51      -0.00000000
  52      -0.04721747
  53      -0.40789690
  54      -0.00000000
  55      -0.03866353
  56      -0.33400204
  57       0.00000000
  58       0.00000000
  59       0.00000000
  60      -0.00501095
  61      -0.04328802
  62       0.00000000
  63       0.00000000
  64       0.00000000
  65       0.00000000
  66       0.00903795
  67       0.07807604
  68      -0.00000000
Ene=     1.24224E-02
Spin= Alpha
Occup=   0.0000000000
   1      -0.02291024
   2       0.30585442
   3       0.41456279
   4      -1.39190324
   5       0.82439500
   6      -0.04115740
   7       0.10042909
   8      -0.05953075
   9      -0.00043916
  10      -0.00047083
  11       0.84641275
  12       0.00000000
  13       0.00000000
  14      -0.21708711
  15      -0.00000000
  16      -0.00000000
  17       0.65268542
  18       0.00000000
  19       0.00000000
  20      -0.82133444
  21      -0.00000000
  22       0.00000000
  23       0.30384176
  24      -0.05652689
  25      -0.05652689
  26       0.00000000
  27       0.00000000
  28      -0.00000000
  29      -0.20432743
  30      -0.18463523
  31      -0.18463523
  32      -0.00000000
  33       0.00000000
  34       0.00000000
  35      -0.02291024
  36       0.30585442
  37       0.41456279
  38      -1.39190324
  39       0.82439500
  40      -0.04115740
  41       0.10042909
  42      -0.05953075
  43      -0.00043916
  44      -0.00047083
  45      -0.84641275
  46      -0.00000000
  47      -0.00000000
  48       0.21708711
  49       0.00000000
  50      -0.00000000
  51      -0.65268542
  52      -0.00000000
  53       0.00000000
  54       0.82133444
  55       0.00000000
  56      -0.00000000
  57       0.30384176
  58      -0.05652689
  59      -0.05652689
  60       0.00000000
  61       0.00000000
  62       0.00000000
  63      -0.20432743
  64      -0.18463523
  65      -0.18463523
  66      -0.00000000
  67       0.00000000
  68      -0.00000000
Ene=     1.36703E-02
Spin= Alpha
Occup=   0.0000000000
   1       0.00000000
   2      -0.00000000
   3      -0.00000000
   4       0.00000000
   5      -0.00000000
   6       0.00000000
   7      -0.00000000
   8       0.00000000
   9       0.00000000
  10       0.00000000
  11      -0.00000000
  12      -0.04253632
  13      -0.08036043
  14      -0.00000000
  15       0.04076847
  16       0.07702058
  17      -0.00000000
  18      -0.00273884
  19      -0.00517428
  20       0.00000000
  21       0.33831493
  22       0.63915108
  23      -0.00000000
  24      -0.00000000
  25      -0.00000000
  26      -0.01271301
  27      -0.02401766
  28       0.00000000
  29      -0.00000000
  30      -0.00000000
  31      -0.00000000
  32       0.02147851
  33       0.04057761
  34      -0.00000000
  35      -0.00000000
  36       0.00000000
  37      -0.00000000
  38       0.00000000
  39      -0.00000000
  40      -0.00000000
  41      -0.00000000
  42       0.00000000
  43      -0.00000000
  44       0.00000000
  45      -0.00000000
  46       0.04253632
  47       0.08036043
  48      -0.00000000
  49      -0.04076847
  50      -0.07702058
  51       0.00000000
  52       0.00273884
  53       0.00517428
  54      -0.00000000
  55      -0.33831493
  56      -0.63915108
  57       0.00000000
  58       0.00000000
  59       0.00000000
  60      -0.01271301
  61      -0.02401766
  62       0.00000000
  63       0.00000000
  64       0.00000000
  65       0.00000000
  66       0.02147851
  67       0.04057761
  68       0.00000000
Ene=     1.36703E-02
Spin= Alpha
Occup=   0.0000000000
   1       0.00000000
   2      -0.00000000
   3       0.00000000
   4      -0.00000000
   5      -0.00000000
   6      -0.00000000
   7      -0.00000000
   8       0.00000000
   9       0.00000000
  10      -0.00000000
  11      -0.00000000
  12       0.08036043
  13      -0.04253632
  14      -0.00000000
  15      -0.07702058
  16       0.04076847
  17       0.00000000
  18       0.00517428
  19      -0.00273884
  20       0.00000000
  21      -0.63915108
  22       0.33831493
  23      -0.00000000
  24      -0.00000000
  25      -0.00000000
  26       0.02401766
  27      -0.01271301
  28       0.00000000
  29      -0.00000000
  30      -0.00000000
  31      -0.00000000
  32      -0.04057761
  33       0.02147851
  34      -0.00000000
  35      -0.00000000
  36       0.00000000
  37      -0.00000000
  38       0.00000000
  39      -0.00000000
  40      -0.00000000
  41      -0.00000000
  42       0.00000000
  43       0.00000000
  44      -0.00000000
  45       0.00000000
  46      -0.08036043
  47       0.04253632
  48      -0.00000000
  49       0.07702058
  50      -0.04076847
  51       0.00000000
  52      -0.00517428
  53       0.00273884
  54      -0.00000000
  55       0.63915108
  56      -0.33831493
  57      -0.00000000
  58       0.00000000
  59       0.00000000
  60       0.02401766
  61      -0.01271301
  62      -0.00000000
  63       0.00000000
  64       0.00000000
  65       0.00000000
  66      -0.04057761
  67       0.02147851
  68       0.00000000
Ene=     1.77869E-02
Spin= Alpha
Occup=   0.0000000000
   1      -0.19269819
   2      18.08254166
   3      -2.74099109
   4       1.59893044
   5      -0.54097500
   6       0.05110576
   7      -0.04775535
   8       0.02525060
   9      -0.00047278
  10       0.00029434
  11      -0.02482176
  12      -0.00000000
  13      -0.00000000
  14       8.87061441
  15       0.00000000
  16      -0.00000000
  17      -1.64404926
  18       0.00000000
  19       0.00000000
  20       0.71001756
  21      -0.00000000
  22      -0.00000000
  23      -0.00366889
  24      -0.00339470
  25      -0.00339470
  26      -0.00000000
  27      -0.00000000
  28       0.00000000
  29       2.29132794
  30       0.10622076
  31       0.10622076
  32       0.00000000
  33      -0.00000000
  34      -0.00000000
  35       0.19269819
  36     -18.08254166
  37       2.74099109
  38      -1.59893044
  39       0.54097500
  40      -0.05110576
  41       0.04775535
  42      -0.02525060
  43       0.00047278
  44      -0.00029434
  45      -0.02482176
  46       0.00000000
  47       0.00000000
  48       8.87061441
  49      -0.00000000
  50       0.00000000
  51      -1.64404926
  52       0.00000000
  53       0.00000000
  54       0.71001756
  55      -0.00000000
  56      -0.00000000
  57       0.00366889
  58       0.00339470
  59       0.00339470
  60      -0.00000000
  61      -0.00000000
  62      -0.00000000
  63      -2.29132794
  64      -0.10622076
  65      -0.10622076
  66       0.00000000
  67      -0.00000000
  68       0.00000000
Ene=     1.79942E-02
Spin= Alpha
Occup=   0.0000000000
   1      -0.00000000
   2       0.00000000
   3       0.00000000
   4      -0.00000000
   5       0.00000000
   6      -0.00000000
   7       0.00000000
   8      -0.00000000
   9      -0.00000000
  10       0.00000000
  11       0.00000000
  12       0.05007907
  13       0.05864856
  14       0.00000000
  15      -0.14526505
  16      -0.17012268
  17       0.00000000
  18       0.61186834
  19       0.71657071
  20      -0.00000000
  21      -0.63151581
  22      -0.73958025
  23       0.00000000
  24       0.00000000
  25       0.00000000
  26      -0.04023686
  27      -0.04712216
  28       0.00000000
  29       0.00000000
  30       0.00000000
  31       0.00000000
  32       0.07755776
  33       0.09082938
  34      -0.00000000
  35       0.00000000
  36      -0.00000000
  37      -0.00000000
  38       0.00000000
  39      -0.00000000
  40       0.00000000
  41      -0.00000000
  42       0.00000000
  43       0.00000000
  44      -0.00000000
  45       0.00000000
  46       0.05007907
  47       0.05864856
  48       0.00000000
  49      -0.14526505
  50      -0.17012268
  51       0.00000000
  52       0.61186834
  53       0.71657071
  54      -0.00000000
  55      -0.63151581
  56      -0.73958025
  57      -0.00000000
  58      -0.00000000
  59      -0.00000000
  60       0.04023686
  61       0.04712216
  62      -0.00000000
  63      -0.00000000
  64      -0.00000000
  65      -0.00000000
  66      -0.07755776
  67      -0.09082938
  68       0.00000000
Ene=     1.79942E-02
Spin= Alpha
Occup=   0.0000000000
   1      -0.00000000
   2      -0.00000000
   3       0.00000000
   4      -0.00000000
   5       0.00000000
   6      -0.00000000
   7       0.00000000
   8      -0.00000000
   9       0.00000000
  10      -0.00000000
  11       0.00000000
  12       0.05864856
  13      -0.05007907
  14      -0.00000000
  15      -0.17012268
  16       0.14526505
  17       0.00000000
  18       0.71657071
  19      -0.61186834
  20      -0.00000000
  21      -0.73958025
  22       0.63151581
  23       0.00000000
  24       0.00000000
  25       0.00000000
  26      -0.04712216
  27       0.04023686
  28      -0.00000000
  29      -0.00000000
  30       0.00000000
  31       0.00000000
  32       0.09082938
  33      -0.07755776
  34       0.00000000
  35      -0.00000000
  36       0.00000000
  37      -0.00000000
  38       0.00000000
  39      -0.00000000
  40       0.00000000
  41      -0.00000000
  42       0.00000000
  43      -0.00000000
  44      -0.00000000
  45      -0.00000000
  46       0.05864856
  47      -0.05007907
  48      -0.00000000
  49      -0.17012268
  50       0.14526505
  51       0.00000000
  52       0.71657071
  53      -0.61186834
  54      -0.00000000
  55      -0.73958025
  56       0.63151581
  57       0.00000000
  58      -0.00000000
  59      -0.00000000
  60       0.04712216
  61      -0.04023686
  62       0.00000000
  63       0.00000000
  64      -0.00000000
  65      -0.00000000
  66      -0.09082938
  67       0.07755776
  68      -0.00000000
Ene=     2.13806E-02
Spin= Alpha
Occup=   0.0000000000
   1      -0.30134493
   2      -0.04253915
   3       0.16565480
   4      -1.04834170
   5       0.67631908
   6       0.02296351
   7       0.07078133
   8      -0.04708482
   9      -0.00164241
  10      -0.00019266
  11       0.41289246
  12      -0.00000000
  13      -0.00000000
  14      -0.09893052
  15       0.00000000
  16      -0.00000000
  17       0.17455720
  18      -0.00000000
  19      -0.00000000
  20       0.31688660
  21       0.00000000
  22       0.00000000
  23       0.18972636
  24       0.01592105
  25       0.01592105
  26      -0.00000000
  27      -0.00000000
  28      -0.00000000
  29       0.02834763
  30       0.03611827
  31       0.03611827
  32       0.00000000
  33      -0.00000000
  34       0.00000000
  35      -0.30134493
  36      -0.04253915
  37       0.16565480
  38      -1.04834170
  39       0.67631908
  40       0.02296351
  41       0.07078133
  42      -0.04708482
  43      -0.00164241
  44      -0.00019266
  45      -0.41289246
  46       0.00000000
  47       0.00000000
  48       0.09893052
  49      -0.00000000
  50       0.00000000
  51      -0.17455720
  52       0.00000000
  53      -0.00000000
  54      -0.31688660
  55      -0.00000000
  56       0.00000000
  57       0.18972636
  58       0.01592105
  59       0.01592105
  60      -0.00000000
  61      -0.00000000
  62       0.00000000
  63       0.02834763
  64       0.03611827
  65       0.03611827
  66       0.00000000
  67      -0.00000000
  68      -0.00000000
Ene=     2.33570E-02
Spin= Alpha
Occup=   0.0000000000
   1       0.05498605
   2      -5.98728326
   3       1.74950887
   4      -1.82179359
   5       0.85292889
   6       0.00962907
   7       0.07931122
   8      -0.05117219
   9      -0.00148424
  10      -0.00025305
  11       0.04217870
  12       0.00000000
  13       0.00000000
  14      -2.92856359
  15      -0.00000000
  16      -0.00000000
  17       0.88488095
  18       0.00000000
  19       0.00000000
  20       0.31787928
  21      -0.00000000
  22      -0.00000000
  23       0.02169586
  24       0.03393433
  25       0.03393433
  26       0.00000000
  27       0.00000000
  28      -0.00000000
  29      -0.69710592
  30      -0.00658097
  31      -0.00658097
  32      -0.00000000
  33      -0.00000000
  34       0.00000000
  35      -0.05498605
  36       5.98728326
  37      -1.74950887
  38       1.82179359
  39      -0.85292889
  40      -0.00962907
  41      -0.07931122
  42       0.05117219
  43       0.00148424
  44       0.00025305
  45       0.04217870
  46      -0.00000000
  47      -0.00000000
  48      -2.92856359
  49       0.00000000
  50       0.00000000
  51       0.88488095
  52      -0.00000000
  53      -0.00000000
  54       0.31787928
  55       0.00000000
  56       0.00000000
  57      -0.02169586
  58      -0.03393433
  59      -0.03393433
  60       0.00000000
  61       0.00000000
  62       0.00000000
  63       0.69710592
  64       0.00658097
  65       0.00658097
  66       0.00000000
  67      -0.00000000
  68      -0.00000000
Ene=     2.43203E-02
Spin= Alpha
Occup=   0.0000000000
   1       0.00000000
   2      -0.00000000
   3       0.00000000
   4       0.00000000
   5      -0.00000000
   6       0.00000000
   7      -0.00000000
   8       0.00000000
   9       0.00000000
  10      -0.00000000
  11      -0.00000000
  12       2.26500049
  13      -2.04870049
  14      -0.00000000
  15      -0.57006260
  16       0.51562352
  17       0.00000000
  18       1.12745498
  19      -1.01978678
  20      -0.00000000
  21      -0.59932833
  22       0.54209447
  23      -0.00000000
  24      -0.00000000
  25      -0.00000000
  26       0.53012799
  27      -0.47950253
  28       0.00000000
  29      -0.00000000
  30      -0.00000000
  31      -0.00000000
  32      -0.06814719
  33       0.06163936
  34       0.00000000
  35      -0.00000000
  36       0.00000000
  37       0.00000000
  38      -0.00000000
  39       0.00000000
  40      -0.00000000
  41       0.00000000
  42      -0.00000000
  43       0.00000000
  44       0.00000000
  45       0.00000000
  46      -2.26500049
  47       2.04870049
  48      -0.00000000
  49       0.57006260
  50      -0.51562352
  51       0.00000000
  52      -1.12745498
  53       1.01978678
  54      -0.00000000
  55       0.59932833
  56      -0.54209447
  57      -0.00000000
  58       0.00000000
  59       0.00000000
  60       0.53012799
  61      -0.47950253
  62      -0.00000000
  63       0.00000000
  64       0.00000000
  65       0.00000000
  66      -0.06814719
  67       0.06163936
  68      -0.00000000
Ene=     2.43203E-02
Spin= Alpha
Occup=   0.0000000000
   1      -0.00000000
   2       0.00000000
   3       0.00000000
   4      -0.00000000
   5       0.00000000
   6      -0.00000000
   7       0.00000000
   8      -0.00000000
   9      -0.00000000
  10      -0.00000000
  11       0.00000000
  12      -2.04870049
  13      -2.26500049
  14       0.00000000
  15       0.51562352
  16       0.57006260
  17      -0.00000000
  18      -1.01978678
  19      -1.12745498
  20       0.00000000
  21       0.54209447
  22       0.59932833
  23       0.00000000
  24       0.00000000
  25       0.00000000
  26      -0.47950253
  27      -0.53012799
  28       0.00000000
  29       0.00000000
  30       0.00000000
  31       0.00000000
  32       0.06163936
  33       0.06814719
  34       0.00000000
  35       0.00000000
  36      -0.00000000
  37       0.00000000
  38       0.00000000
  39      -0.00000000
  40      -0.00000000
  41      -0.00000000
  42       0.00000000
  43       0.00000000
  44       0.00000000
  45       0.00000000
  46       2.04870049
  47       2.26500049
  48       0.00000000
  49      -0.51562352
  50      -0.57006260
  51      -0.00000000
  52       1.01978678
  53       1.12745498
  54       0.00000000
  55      -0.54209447
  56      -0.59932833
  57      -0.00000000
  58      -0.00000000
  59      -0.00000000
  60      -0.47950253
  61      -0.53012799
  62      -0.00000000
  63      -0.00000000
  64      -0.00000000
  65      -0.00000000
  66       0.06163936
  67       0.06814719
  68       0.00000000
Ene=     3.04105E-02
Spin= Alpha
Occup=   0.0000000000
   1      -1.49834657
   2       0.49359187
   3      -0.91946206
   4       1.02921857
   5      -0.41495767
   6      -0.00898012
   7      -0.03203599
   8       0.02100455
   9       0.00068896
  10       0.00009446
  11       2.52192454
  12       0.00000000
  13      -0.00000000
  14      -0.80433726
  15      -0.00000000
  16       0.00000000
  17       1.11121213
  18       0.00000000
  19       0.00000000
  20      -0.71346117
  21      -0.00000000
  22      -0.00000000
  23       1.14466638
  24       0.04031881
  25       0.04031881
  26       0.00000000
  27      -0.00000000
  28       0.00000000
  29      -0.25394537
  30       0.03382482
  31       0.03382482
  32      -0.00000000
  33       0.00000000
  34      -0.00000000
  35      -1.49834657
  36       0.49359187
  37      -0.91946206
  38       1.02921857
  39      -0.41495767
  40      -0.00898012
  41      -0.03203599
  42       0.02100455
  43       0.00068896
  44       0.00009446
  45      -2.52192454
  46      -0.00000000
  47       0.00000000
  48       0.80433726
  49       0.00000000
  50      -0.00000000
  51      -1.11121213
  52      -0.00000000
  53       0.00000000
  54       0.71346117
  55       0.00000000
  56       0.00000000
  57       1.14466638
  58       0.04031881
  59       0.04031881
  60       0.00000000
  61      -0.00000000
  62      -0.00000000
  63      -0.25394537
  64       0.03382482
  65       0.03382482
  66      -0.00000000
  67       0.00000000
  68       0.00000000
Ene=     3.09479E-02
Spin= Alpha
Occup=   0.0000000000
   1       5.40767390
   2       2.53695459
   3      -4.91799100
   4       2.23836559
   5      -0.59832065
   6      -0.07681029
   7      -0.03643215
   8       0.03069114
   9       0.00242563
  10      -0.00006199
  11      -3.27753671
  12      -0.00000000
  13       0.00000000
  14       1.54542463
  15       0.00000000
  16      -0.00000000
  17      -0.46879099
  18      -0.00000000
  19       0.00000000
  20       0.30615916
  21       0.00000000
  22      -0.00000000
  23      -2.02775628
  24      -0.56365625
  25      -0.56365625
  26      -0.00000000
  27       0.00000000
  28       0.00000000
  29      -0.89684703
  30      -1.72780214
  31      -1.72780214
  32       0.00000000
  33      -0.00000000
  34       0.00000000
  35       5.40767390
  36       2.53695459
  37      -4.91799100
  38       2.23836559
  39      -0.59832065
  40      -0.07681029
  41      -0.03643215
  42       0.03069114
  43       0.00242563
  44      -0.00006199
  45       3.27753671
  46       0.00000000
  47      -0.00000000
  48      -1.54542463
  49      -0.00000000
  50       0.00000000
  51       0.46879099
  52       0.00000000
  53      -0.00000000
  54      -0.30615916
  55      -0.00000000
  56       0.00000000
  57      -2.02775628
  58      -0.56365625
  59      -0.56365625
  60      -0.00000000
  61       0.00000000
  62      -0.00000000
  63      -0.89684703
  64      -1.72780214
  65      -1.72780214
  66       0.00000000
  67      -0.00000000
  68      -0.00000000
Ene=     3.16216E-02
Spin= Alpha
Occup=   0.0000000000
   1       0.25527108
   2     -17.91315104
   3      -0.28769495
   4       0.80596141
   5      -0.34151514
   6       0.00454225
   7      -0.02597071
   8       0.01582652
   9       0.00027212
  10       0.00010622
  11      -0.19893297
  12       0.00000000