 Molden2AIM, Version 3.1.0 (02/25/2015)           Time: Thu Oct 17 19:56:05 2024
GAUSSIAN             68 MOL ORBITALS     68 PRIMITIVES        2 NUCLEI
  Be   1    (CENTRE  1)   0.00000000  0.00000000  0.00000000  CHARGE =  4.0
  Be   2    (CENTRE  2)  54.60000000  0.00000000  0.00000000  CHARGE =  4.0
CENTRE ASSIGNMENTS    1  1  1  1  1  1  1  1  1  1  1  1  1  1  1  1  1  1  1  1
CENTRE ASSIGNMENTS    1  1  1  1  1  1  1  1  1  1  1  1  1  1  2  2  2  2  2  2
CENTRE ASSIGNMENTS    2  2  2  2  2  2  2  2  2  2  2  2  2  2  2  2  2  2  2  2
CENTRE ASSIGNMENTS    2  2  2  2  2  2  2  2
TYPE ASSIGNMENTS      1  1  1  1  1  1  1  1  1  1  2  3  4  2  3  4  2  3  4  2
TYPE ASSIGNMENTS      3  4  5  6  7  8  9 10  5  6  7  8  9 10  1  1  1  1  1  1
TYPE ASSIGNMENTS      1  1  1  1  2  3  4  2  3  4  2  3  4  2  3  4  5  6  7  8
TYPE ASSIGNMENTS      9 10  5  6  7  8  9 10
EXPONENTS  0.1000000D-03 0.3000000D-03 0.9000000D-03 0.2700000D-02 0.8100000D-02
EXPONENTS  0.2430000D-01 0.7290000D-01 0.2187000D+00 0.6561000D+00 0.1968300D+01
EXPONENTS  0.1000000D-03 0.1000000D-03 0.1000000D-03 0.3000000D-03 0.3000000D-03
EXPONENTS  0.3000000D-03 0.9000000D-03 0.9000000D-03 0.9000000D-03 0.2700000D-02
EXPONENTS  0.2700000D-02 0.2700000D-02 0.1000000D-03 0.1000000D-03 0.1000000D-03
EXPONENTS  0.1000000D-03 0.1000000D-03 0.1000000D-03 0.3000000D-03 0.3000000D-03
EXPONENTS  0.3000000D-03 0.3000000D-03 0.3000000D-03 0.3000000D-03 0.1000000D-03
EXPONENTS  0.3000000D-03 0.9000000D-03 0.2700000D-02 0.8100000D-02 0.2430000D-01
EXPONENTS  0.7290000D-01 0.2187000D+00 0.6561000D+00 0.1968300D+01 0.1000000D-03
EXPONENTS  0.1000000D-03 0.1000000D-03 0.3000000D-03 0.3000000D-03 0.3000000D-03
EXPONENTS  0.9000000D-03 0.9000000D-03 0.9000000D-03 0.2700000D-02 0.2700000D-02
EXPONENTS  0.2700000D-02 0.1000000D-03 0.1000000D-03 0.1000000D-03 0.1000000D-03
EXPONENTS  0.1000000D-03 0.1000000D-03 0.3000000D-03 0.3000000D-03 0.3000000D-03
EXPONENTS  0.3000000D-03 0.3000000D-03 0.3000000D-03
MO    1     MO 0.0        OCC NO =    1.0000000  ORB. ENERGY =    0.002852
 -0.20469409D-03 -0.26601973D-03  0.17002123D-02  0.60316422D-03  0.29271876D-02
  0.54193559D-02  0.78255134D-02 -0.14381328D-01 -0.22115169D-02  0.64167861D-04
  0.38184658D-05 -0.00000000D+00  0.00000000D+00 -0.51894601D-05 -0.00000000D+00
  0.00000000D+00  0.36147847D-04  0.00000000D+00 -0.00000000D+00  0.16274866D-03
 -0.00000000D+00  0.00000000D+00  0.23798794D-07  0.34541533D-08  0.34541533D-08
 -0.00000000D+00  0.00000000D+00  0.00000000D+00  0.70031308D-07  0.80205754D-07
  0.80205754D-07 -0.00000000D+00  0.00000000D+00 -0.00000000D+00 -0.20469409D-03
 -0.26601973D-03  0.17002123D-02  0.60316422D-03  0.29271876D-02  0.54193559D-02
  0.78255134D-02 -0.14381328D-01 -0.22115169D-02  0.64167861D-04 -0.38184658D-05
  0.00000000D+00 -0.00000000D+00  0.51894601D-05  0.00000000D+00 -0.00000000D+00
 -0.36147847D-04 -0.00000000D+00  0.00000000D+00 -0.16274866D-03  0.00000000D+00
 -0.00000000D+00  0.23798794D-07  0.34541533D-08  0.34541533D-08 -0.00000000D+00
  0.00000000D+00 -0.00000000D+00  0.70031308D-07  0.80205754D-07  0.80205754D-07
 -0.00000000D+00  0.00000000D+00  0.00000000D+00
MO    2     MO 0.0        OCC NO =    0.0000000  ORB. ENERGY =    0.003873
  0.14691582D-04 -0.18462653D-02 -0.43927634D-04 -0.33435211D-02 -0.27352037D-02
 -0.85863521D-02 -0.99170022D-02  0.19169945D-01  0.33429469D-02 -0.21358494D-03
 -0.43358407D-06 -0.00000000D+00 -0.00000000D+00 -0.39035021D-04  0.00000000D+00
  0.00000000D+00  0.28960266D-04 -0.00000000D+00 -0.00000000D+00 -0.24734204D-03
  0.00000000D+00  0.00000000D+00 -0.40443697D-08 -0.33963320D-08 -0.33963320D-08
 -0.00000000D+00  0.00000000D+00 -0.00000000D+00 -0.28112007D-06 -0.63855340D-07
 -0.63855340D-07 -0.00000000D+00  0.00000000D+00 -0.00000000D+00 -0.14691582D-04
  0.18462653D-02  0.43927634D-04  0.33435211D-02  0.27352037D-02  0.85863521D-02
  0.99170022D-02 -0.19169945D-01 -0.33429469D-02  0.21358494D-03 -0.43358407D-06
  0.00000000D+00  0.00000000D+00 -0.39035021D-04  0.00000000D+00 -0.00000000D+00
  0.28960266D-04 -0.00000000D+00  0.00000000D+00 -0.24734204D-03  0.00000000D+00
 -0.00000000D+00  0.40443697D-08  0.33963320D-08  0.33963320D-08 -0.00000000D+00
 -0.00000000D+00  0.00000000D+00  0.28112007D-06  0.63855340D-07  0.63855340D-07
 -0.00000000D+00  0.00000000D+00 -0.00000000D+00
MO    3     MO 0.0        OCC NO =    0.0000000  ORB. ENERGY =    0.006711
  0.39687369D-03  0.22633533D-03 -0.32144534D-02  0.60034133D-02  0.15380760D-02
  0.84941349D-02  0.76418501D-02 -0.15777577D-01 -0.31565383D-02  0.30487432D-03
 -0.10755207D-04 -0.00000000D+00  0.00000000D+00  0.15859419D-04  0.00000000D+00
 -0.00000000D+00 -0.11856876D-03  0.00000000D+00 -0.00000000D+00  0.19111069D-03
 -0.00000000D+00  0.00000000D+00 -0.62117848D-07 -0.35891025D-08 -0.35891025D-08
 -0.00000000D+00  0.00000000D+00  0.00000000D+00 -0.14672192D-07 -0.79763518D-07
 -0.79763518D-07  0.00000000D+00 -0.00000000D+00  0.00000000D+00  0.39687369D-03
  0.22633533D-03 -0.32144534D-02  0.60034133D-02  0.15380760D-02  0.84941349D-02
  0.76418501D-02 -0.15777577D-01 -0.31565383D-02  0.30487432D-03  0.10755207D-04
  0.00000000D+00 -0.00000000D+00 -0.15859419D-04 -0.00000000D+00  0.00000000D+00
  0.11856876D-03  0.00000000D+00 -0.00000000D+00 -0.19111069D-03 -0.00000000D+00
  0.00000000D+00 -0.62117848D-07 -0.35891025D-08 -0.35891025D-08 -0.00000000D+00
  0.00000000D+00  0.00000000D+00 -0.14672192D-07 -0.79763518D-07 -0.79763518D-07
  0.00000000D+00 -0.00000000D+00 -0.00000000D+00
MO    4     MO 0.0        OCC NO =    0.0000000  ORB. ENERGY =    0.013100
  0.53964490D-05  0.44233846D-02 -0.31487364D-02 -0.21063338D-02  0.11445038D-01
  0.36934393D-02  0.10832707D-01 -0.17718061D-01 -0.19280749D-02 -0.19366424D-03
 -0.14740725D-05  0.00000000D+00 -0.00000000D+00  0.80264923D-04 -0.00000000D+00
  0.00000000D+00 -0.55963092D-04 -0.00000000D+00 -0.00000000D+00 -0.36334696D-03
 -0.00000000D+00  0.00000000D+00 -0.14577808D-07 -0.11392385D-07 -0.11392385D-07
  0.00000000D+00 -0.00000000D+00  0.00000000D+00  0.30318002D-06 -0.14429339D-06
 -0.14429339D-06 -0.00000000D+00  0.00000000D+00 -0.00000000D+00 -0.53964490D-05
 -0.44233846D-02  0.31487364D-02  0.21063338D-02 -0.11445038D-01 -0.36934393D-02
 -0.10832707D-01  0.17718061D-01  0.19280749D-02  0.19366424D-03 -0.14740725D-05
 -0.00000000D+00  0.00000000D+00  0.80264923D-04  0.00000000D+00 -0.00000000D+00
 -0.55963092D-04  0.00000000D+00  0.00000000D+00 -0.36334696D-03 -0.00000000D+00
  0.00000000D+00  0.14577808D-07  0.11392385D-07  0.11392385D-07  0.00000000D+00
 -0.00000000D+00 -0.00000000D+00 -0.30318002D-06  0.14429339D-06  0.14429339D-06
 -0.00000000D+00  0.00000000D+00  0.00000000D+00
MO    5     MO 0.0        OCC NO =    0.0000000  ORB. ENERGY =    0.014884
 -0.00000000D+00 -0.00000000D+00 -0.00000000D+00 -0.00000000D+00  0.00000000D+00
  0.00000000D+00  0.00000000D+00 -0.00000000D+00 -0.00000000D+00 -0.00000000D+00
  0.00000000D+00 -0.44102842D-06  0.72840851D-06 -0.00000000D+00  0.44778784D-05
 -0.73957254D-05  0.00000000D+00 -0.62600446D-04  0.10339176D-03 -0.00000000D+00
 -0.93257019D-04  0.15402458D-03 -0.00000000D+00 -0.00000000D+00 -0.00000000D+00
  0.10152820D-07 -0.16768537D-07  0.00000000D+00 -0.00000000D+00 -0.00000000D+00
 -0.00000000D+00 -0.11355953D-06  0.18755649D-06 -0.00000000D+00 -0.00000000D+00
  0.00000000D+00 -0.00000000D+00 -0.00000000D+00  0.00000000D+00  0.00000000D+00
  0.00000000D+00 -0.00000000D+00 -0.00000000D+00  0.00000000D+00 -0.00000000D+00
 -0.44102842D-06  0.72840851D-06 -0.00000000D+00  0.44778784D-05 -0.73957254D-05
 -0.00000000D+00 -0.62600446D-04  0.10339176D-03  0.00000000D+00 -0.93257019D-04
  0.15402458D-03  0.00000000D+00  0.00000000D+00  0.00000000D+00 -0.10152820D-07
  0.16768537D-07 -0.00000000D+00  0.00000000D+00 -0.00000000D+00 -0.00000000D+00
  0.11355953D-06 -0.18755649D-06  0.00000000D+00
MO    6     MO 0.0        OCC NO =    0.0000000  ORB. ENERGY =    0.014884
  0.00000000D+00  0.00000000D+00 -0.00000000D+00 -0.00000000D+00  0.00000000D+00
 -0.00000000D+00  0.00000000D+00 -0.00000000D+00 -0.00000000D+00  0.00000000D+00
 -0.00000000D+00  0.72840851D-06  0.44102842D-06  0.00000000D+00 -0.73957254D-05
 -0.44778784D-05 -0.00000000D+00  0.10339176D-03  0.62600446D-04 -0.00000000D+00
  0.15402458D-03  0.93257019D-04 -0.00000000D+00  0.00000000D+00  0.00000000D+00
 -0.16768537D-07 -0.10152820D-07 -0.00000000D+00  0.00000000D+00 -0.00000000D+00
 -0.00000000D+00  0.18755649D-06  0.11355953D-06  0.00000000D+00  0.00000000D+00
 -0.00000000D+00  0.00000000D+00 -0.00000000D+00  0.00000000D+00 -0.00000000D+00
  0.00000000D+00 -0.00000000D+00  0.00000000D+00  0.00000000D+00  0.00000000D+00
  0.72840851D-06  0.44102842D-06  0.00000000D+00 -0.73957254D-05 -0.44778784D-05
 -0.00000000D+00  0.10339176D-03  0.62600446D-04  0.00000000D+00  0.15402458D-03
  0.93257019D-04 -0.00000000D+00 -0.00000000D+00 -0.00000000D+00  0.16768537D-07
  0.10152820D-07 -0.00000000D+00 -0.00000000D+00 -0.00000000D+00 -0.00000000D+00
 -0.18755649D-06 -0.11355953D-06  0.00000000D+00
MO    7     MO 0.0        OCC NO =    0.0000000  ORB. ENERGY =    0.015243
  0.29707344D-03  0.65217388D-03  0.24565507D-03 -0.10158579D-01  0.16214812D-01
 -0.55766813D-03  0.11323721D-01 -0.16127496D-01 -0.70432903D-03 -0.52027131D-03
  0.55412601D-05  0.00000000D+00 -0.00000000D+00 -0.38619390D-05  0.00000000D+00
 -0.00000000D+00  0.12263538D-03 -0.00000000D+00 -0.00000000D+00 -0.70023433D-03
  0.00000000D+00 -0.00000000D+00  0.14209725D-07 -0.14867225D-07 -0.14867225D-07
  0.00000000D+00 -0.00000000D+00 -0.00000000D+00 -0.25298821D-06 -0.32543031D-06
 -0.32543031D-06  0.00000000D+00 -0.00000000D+00  0.00000000D+00  0.29707344D-03
  0.65217388D-03  0.24565507D-03 -0.10158579D-01  0.16214812D-01 -0.55766813D-03
  0.11323721D-01 -0.16127496D-01 -0.70432903D-03 -0.52027131D-03 -0.55412601D-05
 -0.00000000D+00  0.00000000D+00  0.38619390D-05 -0.00000000D+00  0.00000000D+00
 -0.12263538D-03 -0.00000000D+00 -0.00000000D+00  0.70023433D-03 -0.00000000D+00
 -0.00000000D+00  0.14209725D-07 -0.14867225D-07 -0.14867225D-07  0.00000000D+00
 -0.00000000D+00  0.00000000D+00 -0.25298821D-06 -0.32543031D-06 -0.32543031D-06
  0.00000000D+00 -0.00000000D+00 -0.00000000D+00
MO    8     MO 0.0        OCC NO =    0.0000000  ORB. ENERGY =    0.017349
 -0.00000000D+00 -0.00000000D+00  0.00000000D+00 -0.00000000D+00  0.00000000D+00
 -0.00000000D+00  0.00000000D+00 -0.00000000D+00 -0.00000000D+00  0.00000000D+00
  0.00000000D+00  0.39976876D-06 -0.87181996D-06 -0.00000000D+00  0.69639554D-06
 -0.15187072D-05  0.00000000D+00  0.61502265D-05 -0.13412477D-04 -0.00000000D+00
  0.24693974D-03 -0.53852882D-03  0.00000000D+00 -0.00000000D+00 -0.00000000D+00
  0.11587166D-08 -0.25269429D-08  0.00000000D+00 -0.00000000D+00 -0.00000000D+00
 -0.00000000D+00  0.33530499D-07 -0.73123660D-07 -0.00000000D+00 -0.00000000D+00
  0.00000000D+00 -0.00000000D+00  0.00000000D+00 -0.00000000D+00  0.00000000D+00
 -0.00000000D+00  0.00000000D+00 -0.00000000D+00 -0.00000000D+00 -0.00000000D+00
 -0.39976876D-06  0.87181996D-06 -0.00000000D+00 -0.69639554D-06  0.15187072D-05
  0.00000000D+00 -0.61502265D-05  0.13412477D-04 -0.00000000D+00 -0.24693974D-03
  0.53852882D-03  0.00000000D+00  0.00000000D+00  0.00000000D+00  0.11587166D-08
 -0.25269429D-08 -0.00000000D+00  0.00000000D+00  0.00000000D+00  0.00000000D+00
  0.33530499D-07 -0.73123660D-07 -0.00000000D+00
MO    9     MO 0.0        OCC NO =    0.0000000  ORB. ENERGY =    0.017349
 -0.00000000D+00 -0.00000000D+00  0.00000000D+00  0.00000000D+00 -0.00000000D+00
  0.00000000D+00 -0.00000000D+00  0.00000000D+00  0.00000000D+00 -0.00000000D+00
 -0.00000000D+00  0.87181996D-06  0.39976876D-06 -0.00000000D+00  0.15187072D-05
  0.69639554D-06  0.00000000D+00  0.13412477D-04  0.61502265D-05  0.00000000D+00
  0.53852882D-03  0.24693974D-03 -0.00000000D+00 -0.00000000D+00 -0.00000000D+00
  0.25269429D-08  0.11587166D-08 -0.00000000D+00 -0.00000000D+00 -0.00000000D+00
 -0.00000000D+00  0.73123660D-07  0.33530499D-07  0.00000000D+00 -0.00000000D+00
  0.00000000D+00  0.00000000D+00  0.00000000D+00 -0.00000000D+00  0.00000000D+00
 -0.00000000D+00  0.00000000D+00 -0.00000000D+00  0.00000000D+00 -0.00000000D+00
 -0.87181996D-06 -0.39976876D-06 -0.00000000D+00 -0.15187072D-05 -0.69639554D-06
  0.00000000D+00 -0.13412477D-04 -0.61502265D-05 -0.00000000D+00 -0.53852882D-03
 -0.24693974D-03  0.00000000D+00  0.00000000D+00  0.00000000D+00  0.25269429D-08
  0.11587166D-08 -0.00000000D+00  0.00000000D+00  0.00000000D+00  0.00000000D+00
  0.73123660D-07  0.33530499D-07  0.00000000D+00
MO   10     MO 0.0        OCC NO =    0.0000000  ORB. ENERGY =    0.019674
 -0.62759169D-04  0.17484275D-01 -0.94126552D-02  0.14671757D-01 -0.12225486D-01
  0.28801187D-02 -0.59986996D-02  0.72059180D-02 -0.33127811D-03  0.44331251D-03
 -0.70119784D-06  0.00000000D+00 -0.00000000D+00  0.34507248D-03 -0.00000000D+00
  0.00000000D+00 -0.35240480D-03  0.00000000D+00 -0.00000000D+00  0.60544812D-03
 -0.00000000D+00  0.00000000D+00 -0.52548159D-08 -0.64183104D-08 -0.64183104D-08
  0.00000000D+00 -0.00000000D+00  0.00000000D+00  0.19338545D-05  0.63226024D-07
  0.63226024D-07 -0.00000000D+00  0.00000000D+00 -0.00000000D+00  0.62759169D-04
 -0.17484275D-01  0.94126552D-02 -0.14671757D-01  0.12225486D-01 -0.28801187D-02
  0.59986996D-02 -0.72059180D-02  0.33127811D-03 -0.44331251D-03 -0.70119784D-06
 -0.00000000D+00  0.00000000D+00  0.34507248D-03  0.00000000D+00 -0.00000000D+00
 -0.35240480D-03  0.00000000D+00  0.00000000D+00  0.60544812D-03 -0.00000000D+00
  0.00000000D+00  0.52548159D-08  0.64183104D-08  0.64183104D-08  0.00000000D+00
 -0.00000000D+00 -0.00000000D+00 -0.19338545D-05 -0.63226024D-07 -0.63226024D-07
 -0.00000000D+00  0.00000000D+00  0.00000000D+00
MO   11     MO 0.0        OCC NO =    0.0000000  ORB. ENERGY =    0.020989
 -0.00000000D+00  0.00000000D+00  0.00000000D+00 -0.00000000D+00  0.00000000D+00
 -0.00000000D+00  0.00000000D+00 -0.00000000D+00 -0.00000000D+00  0.00000000D+00
  0.00000000D+00  0.10117992D-05 -0.12348249D-06  0.00000000D+00 -0.10854580D-04
  0.13247196D-05  0.00000000D+00  0.18995537D-03 -0.23182617D-04 -0.00000000D+00
 -0.86593254D-03  0.10568052D-03  0.00000000D+00  0.00000000D+00  0.00000000D+00
 -0.21600603D-07  0.26361892D-08 -0.00000000D+00  0.00000000D+00  0.00000000D+00
  0.00000000D+00  0.24663277D-06 -0.30099659D-07 -0.00000000D+00 -0.00000000D+00
 -0.00000000D+00 -0.00000000D+00  0.00000000D+00 -0.00000000D+00  0.00000000D+00
 -0.00000000D+00  0.00000000D+00 -0.00000000D+00  0.00000000D+00 -0.00000000D+00
  0.10117992D-05 -0.12348249D-06  0.00000000D+00 -0.10854580D-04  0.13247196D-05
  0.00000000D+00  0.18995537D-03 -0.23182617D-04 -0.00000000D+00 -0.86593254D-03
  0.10568052D-03  0.00000000D+00 -0.00000000D+00 -0.00000000D+00  0.21600603D-07
 -0.26361892D-08  0.00000000D+00 -0.00000000D+00 -0.00000000D+00 -0.00000000D+00
 -0.24663277D-06  0.30099659D-07  0.00000000D+00
MO   12     MO 0.0        OCC NO =    0.0000000  ORB. ENERGY =    0.020989
  0.00000000D+00 -0.00000000D+00 -0.00000000D+00  0.00000000D+00 -0.00000000D+00
  0.00000000D+00 -0.00000000D+00  0.00000000D+00 -0.00000000D+00  0.00000000D+00
 -0.00000000D+00  0.12348249D-06  0.10117992D-05 -0.00000000D+00 -0.13247196D-05
 -0.10854580D-04 -0.00000000D+00  0.23182617D-04  0.18995537D-03  0.00000000D+00
 -0.10568052D-03 -0.86593254D-03 -0.00000000D+00 -0.00000000D+00 -0.00000000D+00
 -0.26361892D-08 -0.21600603D-07  0.00000000D+00 -0.00000000D+00 -0.00000000D+00
 -0.00000000D+00  0.30099659D-07  0.24663277D-06 -0.00000000D+00 -0.00000000D+00
  0.00000000D+00  0.00000000D+00 -0.00000000D+00  0.00000000D+00 -0.00000000D+00
  0.00000000D+00 -0.00000000D+00 -0.00000000D+00 -0.00000000D+00 -0.00000000D+00
  0.12348249D-06  0.10117992D-05 -0.00000000D+00 -0.13247196D-05 -0.10854580D-04
 -0.00000000D+00  0.23182617D-04  0.18995537D-03  0.00000000D+00 -0.10568052D-03
 -0.86593254D-03  0.00000000D+00  0.00000000D+00  0.00000000D+00  0.26361892D-08
  0.21600603D-07 -0.00000000D+00  0.00000000D+00  0.00000000D+00  0.00000000D+00
 -0.30099659D-07 -0.24663277D-06  0.00000000D+00
MO   13     MO 0.0        OCC NO =    0.0000000  ORB. ENERGY =    0.025306
 -0.40993010D-03 -0.12204762D-03  0.48419295D-03 -0.73740182D-02  0.11729390D-01
  0.89524005D-03  0.65468227D-02 -0.99298337D-02 -0.79192203D-03 -0.20975950D-03
  0.88228707D-05 -0.00000000D+00 -0.00000000D+00 -0.12094838D-04 -0.00000000D+00
  0.00000000D+00  0.57747983D-04  0.00000000D+00 -0.00000000D+00  0.23724102D-03
 -0.00000000D+00 -0.00000000D+00  0.54649726D-07  0.59179154D-08  0.59179154D-08
 -0.00000000D+00 -0.00000000D+00 -0.00000000D+00  0.40848430D-07  0.10414507D-06
  0.10414507D-06  0.00000000D+00  0.00000000D+00  0.00000000D+00 -0.40993010D-03
 -0.12204762D-03  0.48419295D-03 -0.73740182D-02  0.11729390D-01  0.89524005D-03
  0.65468227D-02 -0.99298337D-02 -0.79192203D-03 -0.20975950D-03 -0.88228707D-05
  0.00000000D+00  0.00000000D+00  0.12094838D-04 -0.00000000D+00 -0.00000000D+00
 -0.57747983D-04 -0.00000000D+00 -0.00000000D+00 -0.23724102D-03  0.00000000D+00
  0.00000000D+00  0.54649726D-07  0.59179154D-08  0.59179154D-08 -0.00000000D+00
 -0.00000000D+00  0.00000000D+00  0.40848430D-07  0.10414507D-06  0.10414507D-06
  0.00000000D+00  0.00000000D+00 -0.00000000D+00
MO   14     MO 0.0        OCC NO =    0.0000000  ORB. ENERGY =    0.026585
 -0.00000000D+00 -0.00000000D+00  0.00000000D+00 -0.00000000D+00  0.00000000D+00
 -0.00000000D+00  0.00000000D+00 -0.00000000D+00 -0.00000000D+00  0.00000000D+00
 -0.00000000D+00  0.21545043D-04  0.19684851D-04 -0.00000000D+00 -0.24048702D-04
 -0.21972344D-04  0.00000000D+00  0.23696334D-03  0.21650399D-03  0.00000000D+00
 -0.54740542D-03 -0.50014260D-03 -0.00000000D+00 -0.00000000D+00 -0.00000000D+00
  0.10912530D-06  0.99703450D-07  0.00000000D+00 -0.00000000D+00 -0.00000000D+00
 -0.00000000D+00 -0.39117278D-07 -0.35739894D-07 -0.00000000D+00  0.00000000D+00
  0.00000000D+00 -0.00000000D+00  0.00000000D+00 -0.00000000D+00 -0.00000000D+00
 -0.00000000D+00  0.00000000D+00 -0.00000000D+00  0.00000000D+00 -0.00000000D+00
 -0.21545043D-04 -0.19684851D-04 -0.00000000D+00  0.24048702D-04  0.21972344D-04
  0.00000000D+00 -0.23696334D-03 -0.21650399D-03  0.00000000D+00  0.54740542D-03
  0.50014260D-03 -0.00000000D+00  0.00000000D+00  0.00000000D+00  0.10912530D-06
  0.99703450D-07 -0.00000000D+00  0.00000000D+00  0.00000000D+00  0.00000000D+00
 -0.39117278D-07 -0.35739894D-07  0.00000000D+00
MO   15     MO 0.0        OCC NO =    0.0000000  ORB. ENERGY =    0.026585
  0.00000000D+00  0.00000000D+00 -0.00000000D+00  0.00000000D+00 -0.00000000D+00
  0.00000000D+00 -0.00000000D+00  0.00000000D+00 -0.00000000D+00  0.00000000D+00
 -0.00000000D+00  0.19684851D-04 -0.21545043D-04  0.00000000D+00 -0.21972344D-04
  0.24048702D-04 -0.00000000D+00  0.21650399D-03 -0.23696334D-03  0.00000000D+00
 -0.50014260D-03  0.54740542D-03 -0.00000000D+00  0.00000000D+00  0.00000000D+00
  0.99703450D-07 -0.10912530D-06 -0.00000000D+00  0.00000000D+00 -0.00000000D+00
 -0.00000000D+00 -0.35739894D-07  0.39117278D-07  0.00000000D+00  0.00000000D+00
 -0.00000000D+00 -0.00000000D+00 -0.00000000D+00  0.00000000D+00  0.00000000D+00
  0.00000000D+00 -0.00000000D+00 -0.00000000D+00  0.00000000D+00  0.00000000D+00
 -0.19684851D-04  0.21545043D-04  0.00000000D+00  0.21972344D-04 -0.24048702D-04
 -0.00000000D+00 -0.21650399D-03  0.23696334D-03 -0.00000000D+00  0.50014260D-03
 -0.54740542D-03 -0.00000000D+00 -0.00000000D+00 -0.00000000D+00  0.99703450D-07
 -0.10912530D-06  0.00000000D+00 -0.00000000D+00 -0.00000000D+00 -0.00000000D+00
 -0.35739894D-07  0.39117278D-07 -0.00000000D+00
MO   16     MO 0.0        OCC NO =    0.0000000  ORB. ENERGY =    0.027009
  0.16846640D-04 -0.40852147D-02  0.36730712D-02 -0.12663656D-01  0.15076170D-01
  0.18000917D-03  0.75591976D-02 -0.11024437D-01 -0.68401934D-03 -0.29693920D-03
  0.88068587D-07 -0.00000000D+00  0.00000000D+00 -0.84453027D-04  0.00000000D+00
 -0.00000000D+00  0.15862059D-03 -0.00000000D+00 -0.00000000D+00  0.24527256D-03
 -0.00000000D+00  0.00000000D+00 -0.14072146D-08  0.22642252D-08  0.22642252D-08
 -0.00000000D+00  0.00000000D+00 -0.00000000D+00 -0.48297315D-06 -0.62367305D-07
 -0.62367305D-07  0.00000000D+00 -0.00000000D+00  0.00000000D+00 -0.16846640D-04
  0.40852147D-02 -0.36730712D-02  0.12663656D-01 -0.15076170D-01 -0.18000917D-03
 -0.75591976D-02  0.11024437D-01  0.68401934D-03  0.29693920D-03  0.88068587D-07
  0.00000000D+00 -0.00000000D+00 -0.84453027D-04 -0.00000000D+00  0.00000000D+00
  0.15862059D-03  0.00000000D+00  0.00000000D+00  0.24527256D-03 -0.00000000D+00
 -0.00000000D+00  0.14072146D-08 -0.22642252D-08 -0.22642252D-08 -0.00000000D+00
  0.00000000D+00  0.00000000D+00  0.48297315D-06  0.62367305D-07  0.62367305D-07
  0.00000000D+00 -0.00000000D+00 -0.00000000D+00
MO   17     MO 0.0        OCC NO =    0.0000000  ORB. ENERGY =    0.031265
  0.39361513D-02  0.36007152D-02 -0.15509135D-01  0.13782949D-01 -0.83423282D-02
 -0.15650951D-02 -0.27869540D-02  0.49068683D-02  0.73407917D-03 -0.53769304D-05
 -0.47677025D-04 -0.00000000D+00  0.00000000D+00  0.87447039D-04 -0.00000000D+00
 -0.00000000D+00 -0.19209543D-03 -0.00000000D+00  0.00000000D+00  0.48159436D-03
  0.00000000D+00 -0.00000000D+00 -0.36501895D-06 -0.89922771D-07 -0.89922771D-07
 -0.00000000D+00  0.00000000D+00  0.00000000D+00 -0.93639257D-06 -0.18377430D-05
 -0.18377430D-05 -0.00000000D+00 -0.00000000D+00 -0.00000000D+00  0.39361513D-02
  0.36007152D-02 -0.15509135D-01  0.13782949D-01 -0.83423282D-02 -0.15650951D-02
 -0.27869540D-02  0.49068683D-02  0.73407917D-03 -0.53769304D-05  0.47677025D-04
  0.00000000D+00 -0.00000000D+00 -0.87447039D-04  0.00000000D+00  0.00000000D+00
  0.19209543D-03  0.00000000D+00 -0.00000000D+00 -0.48159436D-03 -0.00000000D+00
  0.00000000D+00 -0.36501895D-06 -0.89922771D-07 -0.89922771D-07 -0.00000000D+00
  0.00000000D+00 -0.00000000D+00 -0.93639257D-06 -0.18377430D-05 -0.18377430D-05
 -0.00000000D+00 -0.00000000D+00 -0.00000000D+00
MO   18     MO 0.0        OCC NO =    0.0000000  ORB. ENERGY =    0.032886
 -0.54816637D-03 -0.17876093D-02  0.91556557D-02 -0.15783232D-01  0.13627791D-01
  0.31720292D-04  0.54634792D-02 -0.79042308D-02 -0.47778428D-03 -0.21963695D-03
 -0.75387561D-05  0.00000000D+00 -0.00000000D+00  0.33604271D-05 -0.00000000D+00
  0.00000000D+00 -0.16893118D-03  0.00000000D+00 -0.00000000D+00  0.50309939D-03
 -0.00000000D+00  0.00000000D+00 -0.13763284D-07  0.25574272D-07  0.25574272D-07
  0.00000000D+00 -0.00000000D+00 -0.00000000D+00  0.47682268D-06  0.59853217D-06
  0.59853217D-06 -0.00000000D+00  0.00000000D+00  0.00000000D+00 -0.54816637D-03
 -0.17876093D-02  0.91556557D-02 -0.15783232D-01  0.13627791D-01  0.31720292D-04
  0.54634792D-02 -0.79042308D-02 -0.47778428D-03 -0.21963695D-03  0.75387561D-05
 -0.00000000D+00  0.00000000D+00 -0.33604271D-05  0.00000000D+00 -0.00000000D+00
  0.16893118D-03 -0.00000000D+00  0.00000000D+00 -0.50309939D-03  0.00000000D+00
 -0.00000000D+00 -0.13763284D-07  0.25574272D-07  0.25574272D-07  0.00000000D+00
 -0.00000000D+00  0.00000000D+00  0.47682268D-06  0.59853217D-06  0.59853217D-06
 -0.00000000D+00  0.00000000D+00  0.00000000D+00
MO   19     MO 0.0        OCC NO =    0.0000000  ORB. ENERGY =    0.033643
  0.68325755D-04 -0.14646809D-01 -0.18114085D-02  0.80929254D-02 -0.84439794D-02
  0.95440778D-03 -0.35558566D-02  0.46155724D-02  0.18776981D-04  0.21227032D-03
 -0.48013200D-06 -0.00000000D+00  0.00000000D+00 -0.31269164D-03  0.00000000D+00
 -0.00000000D+00  0.36916331D-03 -0.00000000D+00  0.00000000D+00 -0.57991639D-03
  0.00000000D+00 -0.00000000D+00 -0.38535315D-08 -0.40507312D-09 -0.40507312D-09
 -0.00000000D+00  0.00000000D+00 -0.00000000D+00 -0.19822960D-05 -0.28209303D-06
 -0.28209303D-06  0.00000000D+00 -0.00000000D+00  0.00000000D+00 -0.68325755D-04
  0.14646809D-01  0.18114085D-02 -0.80929254D-02  0.84439794D-02 -0.95440778D-03
  0.35558566D-02 -0.46155724D-02 -0.18776981D-04 -0.21227032D-03 -0.48013200D-06
  0.00000000D+00 -0.00000000D+00 -0.31269164D-03 -0.00000000D+00  0.00000000D+00
  0.36916331D-03  0.00000000D+00 -0.00000000D+00 -0.57991639D-03 -0.00000000D+00
  0.00000000D+00  0.38535315D-08  0.40507312D-09  0.40507312D-09 -0.00000000D+00
  0.00000000D+00  0.00000000D+00  0.19822960D-05  0.28209303D-06  0.28209303D-06
  0.00000000D+00 -0.00000000D+00 -0.00000000D+00
MO   20     MO 0.0        OCC NO =    0.0000000  ORB. ENERGY =    0.039600
  0.80989468D-03  0.53218972D-02 -0.15625998D-01  0.11880010D-01 -0.56975947D-02
 -0.28353829D-02 -0.14137009D-02  0.34736375D-02  0.89442128D-03 -0.12124149D-03
 -0.50277971D-04 -0.00000000D+00 -0.00000000D+00  0.10852083D-03  0.00000000D+00
  0.00000000D+00  0.71320951D-04  0.00000000D+00 -0.00000000D+00 -0.75826413D-04
 -0.00000000D+00  0.00000000D+00 -0.63108204D-06 -0.55491213D-06 -0.55491213D-06
 -0.00000000D+00 -0.00000000D+00 -0.00000000D+00 -0.31332118D-05 -0.36260780D-05
 -0.36260780D-05  0.00000000D+00  0.00000000D+00 -0.00000000D+00 -0.80989468D-03
 -0.53218972D-02  0.15625998D-01 -0.11880010D-01  0.56975947D-02  0.28353829D-02
  0.14137009D-02 -0.34736375D-02 -0.89442128D-03  0.12124149D-03 -0.50277971D-04
  0.00000000D+00  0.00000000D+00  0.10852083D-03 -0.00000000D+00 -0.00000000D+00
  0.71320951D-04  0.00000000D+00  0.00000000D+00 -0.75826413D-04 -0.00000000D+00
 -0.00000000D+00  0.63108204D-06  0.55491213D-06  0.55491213D-06 -0.00000000D+00
 -0.00000000D+00  0.00000000D+00  0.31332118D-05  0.36260780D-05  0.36260780D-05
  0.00000000D+00  0.00000000D+00 -0.00000000D+00
MO   21     MO 0.0        OCC NO =    0.0000000  ORB. ENERGY =    0.042646
 -0.72289177D-02  0.32404417D-02  0.18559357D-02  0.36920883D-03  0.19010592D-04
 -0.12359500D-02  0.14897782D-03  0.40246066D-03  0.31581594D-03 -0.81708024D-04
  0.92949596D-04  0.00000000D+00  0.00000000D+00 -0.36321115D-04  0.00000000D+00
 -0.00000000D+00  0.38604985D-04  0.00000000D+00  0.00000000D+00 -0.23309945D-04
 -0.00000000D+00 -0.00000000D+00  0.78836282D-06  0.19830529D-06  0.19830529D-06
  0.00000000D+00  0.00000000D+00  0.00000000D+00  0.95837534D-06  0.14850563D-05
  0.14850563D-05  0.00000000D+00 -0.00000000D+00 -0.00000000D+00 -0.72289177D-02
  0.32404417D-02  0.18559357D-02  0.36920883D-03  0.19010592D-04 -0.12359500D-02
  0.14897782D-03  0.40246066D-03  0.31581594D-03 -0.81708024D-04 -0.92949596D-04
 -0.00000000D+00 -0.00000000D+00  0.36321115D-04 -0.00000000D+00  0.00000000D+00
 -0.38604985D-04  0.00000000D+00 -0.00000000D+00  0.23309945D-04 -0.00000000D+00
  0.00000000D+00  0.78836282D-06  0.19830529D-06  0.19830529D-06 -0.00000000D+00
  0.00000000D+00  0.00000000D+00  0.95837534D-06  0.14850563D-05  0.14850563D-05
  0.00000000D+00 -0.00000000D+00 -0.00000000D+00
MO   22     MO 0.0        OCC NO =    0.0000000  ORB. ENERGY =    0.042732
  0.00000000D+00 -0.00000000D+00  0.00000000D+00 -0.00000000D+00  0.00000000D+00
  0.00000000D+00  0.00000000D+00 -0.00000000D+00 -0.00000000D+00  0.00000000D+00
 -0.00000000D+00  0.00000000D+00 -0.00000000D+00 -0.00000000D+00 -0.00000000D+00
  0.00000000D+00 -0.00000000D+00  0.00000000D+00 -0.00000000D+00  0.00000000D+00
 -0.00000000D+00  0.00000000D+00 -0.00000000D+00  0.15937744D-07 -0.15937744D-07
  0.00000000D+00 -0.00000000D+00  0.10264132D-06 -0.00000000D+00 -0.20358478D-06
  0.20358478D-06 -0.00000000D+00  0.00000000D+00 -0.13111147D-05  0.00000000D+00
  0.00000000D+00 -0.00000000D+00  0.00000000D+00 -0.00000000D+00 -0.00000000D+00
 -0.00000000D+00  0.00000000D+00  0.00000000D+00 -0.00000000D+00  0.00000000D+00
 -0.00000000D+00  0.00000000D+00 -0.00000000D+00  0.00000000D+00 -0.00000000D+00
  0.00000000D+00 -0.00000000D+00 -0.00000000D+00  0.00000000D+00 -0.00000000D+00
  0.00000000D+00 -0.00000000D+00  0.15937744D-07 -0.15937744D-07  0.00000000D+00
 -0.00000000D+00  0.10264132D-06  0.00000000D+00 -0.20358478D-06  0.20358478D-06
 -0.00000000D+00  0.00000000D+00 -0.13111147D-05
MO   23     MO 0.0        OCC NO =    0.0000000  ORB. ENERGY =    0.042732
 -0.00000000D+00  0.00000000D+00 -0.00000000D+00  0.00000000D+00 -0.00000000D+00
 -0.00000000D+00  0.00000000D+00  0.00000000D+00  0.00000000D+00 -0.00000000D+00
  0.00000000D+00 -0.00000000D+00  0.00000000D+00  0.00000000D+00  0.00000000D+00
 -0.00000000D+00  0.00000000D+00 -0.00000000D+00  0.00000000D+00 -0.00000000D+00
  0.00000000D+00 -0.00000000D+00  0.00000000D+00 -0.51320661D-07  0.51320661D-07
 -0.00000000D+00  0.00000000D+00  0.31875487D-07  0.00000000D+00  0.65555736D-06
 -0.65555736D-06  0.00000000D+00 -0.00000000D+00 -0.40716954D-06 -0.00000000D+00
 -0.00000000D+00  0.00000000D+00 -0.00000000D+00  0.00000000D+00  0.00000000D+00
 -0.00000000D+00 -0.00000000D+00 -0.00000000D+00  0.00000000D+00 -0.00000000D+00
  0.00000000D+00 -0.00000000D+00  0.00000000D+00 -0.00000000D+00  0.00000000D+00
 -0.00000000D+00  0.00000000D+00 -0.00000000D+00 -0.00000000D+00 -0.00000000D+00
  0.00000000D+00  0.00000000D+00 -0.51320661D-07  0.51320661D-07 -0.00000000D+00
  0.00000000D+00  0.31875487D-07 -0.00000000D+00  0.65555736D-06 -0.65555736D-06
  0.00000000D+00 -0.00000000D+00 -0.40716954D-06
MO   24     MO 0.0        OCC NO =    0.0000000  ORB. ENERGY =    0.043040
 -0.33581151D-03  0.49531495D-01 -0.13779169D-01  0.12079424D-01 -0.36754288D-02
 -0.78138006D-02 -0.85011336D-04  0.39945430D-02  0.20604957D-02 -0.46735474D-03
  0.74490198D-05  0.00000000D+00 -0.00000000D+00  0.78715089D-03 -0.00000000D+00
  0.00000000D+00  0.48398152D-04  0.00000000D+00 -0.00000000D+00 -0.87417904D-04
 -0.00000000D+00  0.00000000D+00  0.16668670D-06  0.21767493D-06  0.21767493D-06
  0.00000000D+00 -0.00000000D+00  0.00000000D+00  0.39045129D-05 -0.92115831D-06
 -0.92115831D-06 -0.00000000D+00  0.00000000D+00 -0.00000000D+00  0.33581151D-03
 -0.49531495D-01  0.13779169D-01 -0.12079424D-01  0.36754288D-02  0.78138006D-02
  0.85011336D-04 -0.39945430D-02 -0.20604957D-02  0.46735474D-03  0.74490198D-05
 -0.00000000D+00  0.00000000D+00  0.78715089D-03  0.00000000D+00 -0.00000000D+00