[Molden Format]
[Atoms] AU
E+       1       4     0.00000000     0.00000000     0.00000000
E+       2       4    33.20000000     0.00000000     0.00000000
[GTO]
  1 0
s  1 1.00
   1.0000000000E-04   1.0000000000E+00
s  1 1.00
   3.0000000000E-04   1.0000000000E+00
s  1 1.00
   9.0000000000E-04   1.0000000000E+00
s  1 1.00
   2.7000000000E-03   1.0000000000E+00
s  1 1.00
   8.1000000000E-03   1.0000000000E+00
s  1 1.00
   2.4300000000E-02   1.0000000000E+00
s  1 1.00
   7.2900000000E-02   1.0000000000E+00
s  1 1.00
   2.1870000000E-01   1.0000000000E+00
s  1 1.00
   6.5610000000E-01   1.0000000000E+00
s  1 1.00
   1.9683000000E+00   1.0000000000E+00
p  1 1.00
   1.0000000000E-04   1.0000000000E+00
p  1 1.00
   3.0000000000E-04   1.0000000000E+00
p  1 1.00
   9.0000000000E-04   1.0000000000E+00
p  1 1.00
   2.7000000000E-03   1.0000000000E+00
d  1 1.00
   1.0000000000E-04   1.0000000000E+00
d  1 1.00
   3.0000000000E-04   1.0000000000E+00
 
  2 0
s  1 1.00
   1.0000000000E-04   1.0000000000E+00
s  1 1.00
   3.0000000000E-04   1.0000000000E+00
s  1 1.00
   9.0000000000E-04   1.0000000000E+00
s  1 1.00
   2.7000000000E-03   1.0000000000E+00
s  1 1.00
   8.1000000000E-03   1.0000000000E+00
s  1 1.00
   2.4300000000E-02   1.0000000000E+00
s  1 1.00
   7.2900000000E-02   1.0000000000E+00
s  1 1.00
   2.1870000000E-01   1.0000000000E+00
s  1 1.00
   6.5610000000E-01   1.0000000000E+00
s  1 1.00
   1.9683000000E+00   1.0000000000E+00
p  1 1.00
   1.0000000000E-04   1.0000000000E+00
p  1 1.00
   3.0000000000E-04   1.0000000000E+00
p  1 1.00
   9.0000000000E-04   1.0000000000E+00
p  1 1.00
   2.7000000000E-03   1.0000000000E+00
d  1 1.00
   1.0000000000E-04   1.0000000000E+00
d  1 1.00
   3.0000000000E-04   1.0000000000E+00
 
 
[MO]
Ene=    -3.65746E-03
Spin= Alpha
Occup=   1.0000000000
   1      -0.08100221
   2       0.07141731
   3      -0.00045957
   4       0.23847214
   5       0.26709733
   6       0.18657787
   7       0.11796934
   8      -0.09509790
   9      -0.00644272
  10       0.00008348
  11       0.29512490
  12       0.00000000
  13      -0.00000000
  14      -0.10138650
  15      -0.00000000
  16       0.00000000
  17       0.05584173
  18      -0.00000000
  19       0.00000000
  20      -0.01767265
  21       0.00000000
  22      -0.00000000
  23       0.08429631
  24      -0.00256375
  25      -0.00256375
  26       0.00000000
  27      -0.00000000
  28      -0.00000000
  29      -0.05289309
  30      -0.01053818
  31      -0.01053818
  32      -0.00000000
  33       0.00000000
  34       0.00000000
  35      -0.08100221
  36       0.07141731
  37      -0.00045957
  38       0.23847214
  39       0.26709733
  40       0.18657787
  41       0.11796934
  42      -0.09509790
  43      -0.00644272
  44       0.00008348
  45      -0.29512490
  46      -0.00000000
  47       0.00000000
  48       0.10138650
  49       0.00000000
  50      -0.00000000
  51      -0.05584173
  52      -0.00000000
  53       0.00000000
  54       0.01767265
  55       0.00000000
  56      -0.00000000
  57       0.08429631
  58      -0.00256375
  59      -0.00256375
  60       0.00000000
  61      -0.00000000
  62       0.00000000
  63      -0.05289309
  64      -0.01053818
  65      -0.01053818
  66      -0.00000000
  67       0.00000000
  68      -0.00000000
Ene=    -3.08187E-03
Spin= Alpha
Occup=   0.0000000000
   1      -0.00234455
   2      -0.00863603
   3      -0.04924628
   4      -0.31233287
   5      -0.26652831
   6      -0.20690750
   7      -0.12156939
   8       0.09957118
   9       0.00704712
  10      -0.00013000
  11       0.01219025
  12      -0.00000000
  13      -0.00000000
  14       0.02149540
  15       0.00000000
  16       0.00000000
  17      -0.08272807
  18       0.00000000
  19      -0.00000000
  20       0.00764377
  21      -0.00000000
  22       0.00000000
  23       0.01900226
  24       0.00967484
  25       0.00967484
  26      -0.00000000
  27      -0.00000000
  28      -0.00000000
  29       0.03236054
  30       0.04170534
  31       0.04170534
  32       0.00000000
  33       0.00000000
  34       0.00000000
  35       0.00234455
  36       0.00863603
  37       0.04924628
  38       0.31233287
  39       0.26652831
  40       0.20690750
  41       0.12156939
  42      -0.09957118
  43      -0.00704712
  44       0.00013000
  45       0.01219025
  46       0.00000000
  47       0.00000000
  48       0.02149540
  49      -0.00000000
  50      -0.00000000
  51      -0.08272807
  52       0.00000000
  53       0.00000000
  54       0.00764377
  55      -0.00000000
  56      -0.00000000
  57      -0.01900226
  58      -0.00967484
  59      -0.00967484
  60      -0.00000000
  61      -0.00000000
  62      -0.00000000
  63      -0.03236054
  64      -0.04170534
  65      -0.04170534
  66       0.00000000
  67       0.00000000
  68       0.00000000
Ene=     4.11421E-03
Spin= Alpha
Occup=   0.0000000000
   1      -0.74067347
   2      -0.01421859
   3       1.07894120
   4      -0.77981206
   5      -0.03524227
   6      -0.11214629
   7      -0.03566792
   8       0.03439991
   9       0.00336818
  10      -0.00017477
  11       1.73478640
  12       0.00000000
  13      -0.00000000
  14      -0.54449719
  15      -0.00000000
  16      -0.00000000
  17       0.49357254
  18       0.00000000
  19       0.00000000
  20      -0.05031006
  21      -0.00000000
  22      -0.00000000
  23       0.52868630
  24       0.02363261
  25       0.02363261
  26       0.00000000
  27      -0.00000000
  28       0.00000000
  29      -0.11942568
  30       0.08359774
  31       0.08359774
  32      -0.00000000
  33      -0.00000000
  34       0.00000000
  35      -0.74067347
  36      -0.01421859
  37       1.07894120
  38      -0.77981206
  39      -0.03524227
  40      -0.11214629
  41      -0.03566792
  42       0.03439991
  43       0.00336818
  44      -0.00017477
  45      -1.73478640
  46      -0.00000000
  47       0.00000000
  48       0.54449719
  49       0.00000000
  50       0.00000000
  51      -0.49357254
  52      -0.00000000
  53       0.00000000
  54       0.05031006
  55       0.00000000
  56      -0.00000000
  57       0.52868630
  58       0.02363261
  59       0.02363261
  60       0.00000000
  61      -0.00000000
  62      -0.00000000
  63      -0.11942568
  64       0.08359774
  65       0.08359774
  66      -0.00000000
  67      -0.00000000
  68       0.00000000
Ene=     5.29788E-03
Spin= Alpha
Occup=   0.0000000000
   1       0.00000000
   2       0.00000000
   3       0.00000000
   4       0.00000000
   5       0.00000000
   6      -0.00000000
   7      -0.00000000
   8       0.00000000
   9      -0.00000000
  10       0.00000000
  11      -0.00000000
  12       0.00860938
  13       0.02543023
  14      -0.00000000
  15      -0.02849025
  16      -0.08415403
  17       0.00000000
  18       0.10404565
  19       0.30732835
  20      -0.00000000
  21       0.11583597
  22       0.34215438
  23      -0.00000000
  24      -0.00000000
  25      -0.00000000
  26       0.00037374
  27       0.00110395
  28      -0.00000000
  29      -0.00000000
  30       0.00000000
  31       0.00000000
  32       0.00820149
  33       0.02422543
  34      -0.00000000
  35       0.00000000
  36       0.00000000
  37      -0.00000000
  38      -0.00000000
  39       0.00000000
  40       0.00000000
  41      -0.00000000
  42       0.00000000
  43      -0.00000000
  44      -0.00000000
  45       0.00000000
  46       0.00860938
  47       0.02543023
  48       0.00000000
  49      -0.02849025
  50      -0.08415403
  51       0.00000000
  52       0.10404565
  53       0.30732835
  54       0.00000000
  55       0.11583597
  56       0.34215438
  57      -0.00000000
  58       0.00000000
  59       0.00000000
  60      -0.00037374
  61      -0.00110395
  62       0.00000000
  63      -0.00000000
  64      -0.00000000
  65      -0.00000000
  66      -0.00820149
  67      -0.02422543
  68       0.00000000
Ene=     5.29788E-03
Spin= Alpha
Occup=   0.0000000000
   1       0.00000000
   2       0.00000000
   3       0.00000000
   4       0.00000000
   5      -0.00000000
   6       0.00000000
   7      -0.00000000
   8      -0.00000000
   9       0.00000000
  10      -0.00000000
  11      -0.00000000
  12      -0.02543023
  13       0.00860938
  14       0.00000000
  15       0.08415403
  16      -0.02849025
  17       0.00000000
  18      -0.30732835
  19       0.10404565
  20      -0.00000000
  21      -0.34215438
  22       0.11583597
  23      -0.00000000
  24      -0.00000000
  25      -0.00000000
  26      -0.00110395
  27       0.00037374
  28       0.00000000
  29      -0.00000000
  30      -0.00000000
  31      -0.00000000
  32      -0.02422543
  33       0.00820149
  34      -0.00000000
  35       0.00000000
  36       0.00000000
  37      -0.00000000
  38      -0.00000000
  39       0.00000000
  40      -0.00000000
  41       0.00000000
  42      -0.00000000
  43       0.00000000
  44       0.00000000
  45       0.00000000
  46      -0.02543023
  47       0.00860938
  48      -0.00000000
  49       0.08415403
  50      -0.02849025
  51       0.00000000
  52      -0.30732835
  53       0.10404565
  54       0.00000000
  55      -0.34215438
  56       0.11583597
  57      -0.00000000
  58       0.00000000
  59       0.00000000
  60       0.00110395
  61      -0.00037374
  62      -0.00000000
  63       0.00000000
  64       0.00000000
  65       0.00000000
  66       0.02422543
  67      -0.00820149
  68       0.00000000
Ene=     7.79608E-03
Spin= Alpha
Occup=   0.0000000000
   1       0.00000000
   2      -0.00000000
   3      -0.00000000
   4       0.00000000
   5       0.00000000
   6       0.00000000
   7       0.00000000
   8      -0.00000000
   9       0.00000000
  10      -0.00000000
  11       0.00000000
  12      -1.17006808
  13      -0.04841793
  14      -0.00000000
  15       0.20446054
  16       0.00846067
  17       0.00000000
  18      -0.18436736
  19      -0.00762920
  20      -0.00000000
  21      -0.72049093
  22      -0.02981423
  23      -0.00000000
  24      -0.00000000
  25      -0.00000000
  26      -0.19129170
  27      -0.00791574
  28       0.00000000
  29      -0.00000000
  30      -0.00000000
  31      -0.00000000
  32       0.03497583
  33       0.00144732
  34      -0.00000000
  35      -0.00000000
  36       0.00000000
  37       0.00000000
  38      -0.00000000
  39       0.00000000
  40      -0.00000000
  41      -0.00000000
  42       0.00000000
  43      -0.00000000
  44       0.00000000
  45       0.00000000
  46       1.17006808
  47       0.04841793
  48      -0.00000000
  49      -0.20446054
  50      -0.00846067
  51      -0.00000000
  52       0.18436736
  53       0.00762920
  54       0.00000000
  55       0.72049093
  56       0.02981423
  57      -0.00000000
  58       0.00000000
  59       0.00000000
  60      -0.19129170
  61      -0.00791574
  62      -0.00000000
  63       0.00000000
  64       0.00000000
  65       0.00000000
  66       0.03497583
  67       0.00144732
  68       0.00000000
Ene=     7.79608E-03
Spin= Alpha
Occup=   0.0000000000
   1      -0.00000000
   2       0.00000000
   3      -0.00000000
   4       0.00000000
   5       0.00000000
   6      -0.00000000
   7      -0.00000000
   8       0.00000000
   9      -0.00000000
  10       0.00000000
  11      -0.00000000
  12       0.04841793
  13      -1.17006808
  14       0.00000000
  15      -0.00846067
  16       0.20446054
  17      -0.00000000
  18       0.00762920
  19      -0.18436736
  20      -0.00000000
  21       0.02981423
  22      -0.72049093
  23      -0.00000000
  24       0.00000000
  25       0.00000000
  26       0.00791574
  27      -0.19129170
  28      -0.00000000
  29       0.00000000
  30      -0.00000000
  31      -0.00000000
  32      -0.00144732
  33       0.03497583
  34       0.00000000
  35       0.00000000
  36      -0.00000000
  37       0.00000000
  38      -0.00000000
  39      -0.00000000
  40      -0.00000000
  41       0.00000000
  42      -0.00000000
  43       0.00000000
  44      -0.00000000
  45      -0.00000000
  46      -0.04841793
  47       1.17006808
  48       0.00000000
  49       0.00846067
  50      -0.20446054
  51      -0.00000000
  52      -0.00762920
  53       0.18436736
  54       0.00000000
  55      -0.02981423
  56       0.72049093
  57       0.00000000
  58      -0.00000000
  59      -0.00000000
  60       0.00791574
  61      -0.19129170
  62       0.00000000
  63      -0.00000000
  64      -0.00000000
  65      -0.00000000
  66      -0.00144732
  67       0.03497583
  68      -0.00000000
Ene=     8.56385E-03
Spin= Alpha
Occup=   0.0000000000
   1       0.02276712
   2      -0.00868107
   3      -3.31315959
   4      -0.14037709
   5       0.54640798
   6       0.02021432
   7       0.08065490
   8      -0.05341742
   9      -0.00173213
  10      -0.00023123
  11      -0.12520118
  12       0.00000000
  13      -0.00000000
  14       0.03200736
  15      -0.00000000
  16       0.00000000
  17      -1.22490490
  18      -0.00000000
  19      -0.00000000
  20      -0.20643934
  21      -0.00000000
  22       0.00000000
  23      -0.09828249
  24      -0.18734492
  25      -0.18734492
  26       0.00000000
  27      -0.00000000
  28       0.00000000
  29      -0.26109818
  30      -0.10569698
  31      -0.10569698
  32      -0.00000000
  33       0.00000000
  34      -0.00000000
  35      -0.02276712
  36       0.00868107
  37       3.31315959
  38       0.14037709
  39      -0.54640798
  40      -0.02021432
  41      -0.08065490
  42       0.05341742
  43       0.00173213
  44       0.00023123
  45      -0.12520118
  46      -0.00000000
  47       0.00000000
  48       0.03200736
  49       0.00000000
  50      -0.00000000
  51      -1.22490490
  52      -0.00000000
  53       0.00000000
  54      -0.20643934
  55      -0.00000000
  56      -0.00000000
  57       0.09828249
  58       0.18734492
  59       0.18734492
  60       0.00000000
  61      -0.00000000
  62      -0.00000000
  63       0.26109818
  64       0.10569698
  65       0.10569698
  66       0.00000000
  67       0.00000000
  68      -0.00000000
Ene=     8.99829E-03
Spin= Alpha
Occup=   0.0000000000
   1       0.26917553
   2      -0.22009076
   3      -0.26992287
   4       0.41341842
   5      -0.23380281
   6       0.04317142
   7      -0.02736026
   8       0.01299109
   9      -0.00064307
  10       0.00020785
  11      -1.12714389
  12       0.00000000
  13      -0.00000000
  14       0.32387376
  15       0.00000000
  16      -0.00000000
  17      -0.30990085
  18      -0.00000000
  19       0.00000000
  20       0.69389544
  21      -0.00000000
  22       0.00000000
  23      -0.31450154
  24       0.01582907
  25       0.01582907
  26       0.00000000
  27      -0.00000000
  28      -0.00000000
  29       0.17602963
  30       0.05256480
  31       0.05256480
  32       0.00000000
  33      -0.00000000
  34       0.00000000
  35       0.26917553
  36      -0.22009076
  37      -0.26992287
  38       0.41341842
  39      -0.23380281
  40       0.04317142
  41      -0.02736026
  42       0.01299109
  43      -0.00064307
  44       0.00020785
  45       1.12714389
  46      -0.00000000
  47       0.00000000
  48      -0.32387376
  49      -0.00000000
  50       0.00000000
  51       0.30990085
  52       0.00000000
  53      -0.00000000
  54      -0.69389544
  55       0.00000000
  56       0.00000000
  57      -0.31450154
  58       0.01582907
  59       0.01582907
  60      -0.00000000
  61      -0.00000000
  62       0.00000000
  63       0.17602963
  64       0.05256480
  65       0.05256480
  66       0.00000000
  67      -0.00000000
  68      -0.00000000
Ene=     1.23724E-02
Spin= Alpha
Occup=   0.0000000000
   1      -0.00000000
   2       0.00000000
   3       0.00000000
   4      -0.00000000
   5       0.00000000
   6      -0.00000000
   7       0.00000000
   8      -0.00000000
   9      -0.00000000
  10      -0.00000000
  11       0.00000000
  12      -0.03992463
  13       0.04954410
  14      -0.00000000
  15       0.13656129
  16      -0.16946449
  17       0.00000000
  18      -0.59652016
  19       0.74024627
  20      -0.00000000
  21       0.58395078
  22      -0.72464842
  23       0.00000000
  24      -0.00000000
  25      -0.00000000
  26      -0.00230479
  27       0.00286011
  28       0.00000000
  29      -0.00000000
  30      -0.00000000
  31      -0.00000000
  32      -0.03663079
  33       0.04545665
  34      -0.00000000
  35      -0.00000000
  36       0.00000000
  37       0.00000000
  38      -0.00000000
  39       0.00000000
  40      -0.00000000
  41       0.00000000
  42      -0.00000000
  43      -0.00000000
  44      -0.00000000
  45      -0.00000000
  46      -0.03992463
  47       0.04954410
  48       0.00000000
  49       0.13656129
  50      -0.16946449
  51      -0.00000000
  52      -0.59652016
  53       0.74024627
  54       0.00000000
  55       0.58395078
  56      -0.72464842
  57       0.00000000
  58      -0.00000000
  59      -0.00000000
  60       0.00230479
  61      -0.00286011
  62      -0.00000000
  63      -0.00000000
  64      -0.00000000
  65      -0.00000000
  66       0.03663079
  67      -0.04545665
  68       0.00000000
Ene=     1.23724E-02
Spin= Alpha
Occup=   0.0000000000
   1      -0.00000000
   2       0.00000000
   3       0.00000000
   4      -0.00000000
   5       0.00000000
   6      -0.00000000
   7       0.00000000
   8      -0.00000000
   9      -0.00000000
  10      -0.00000000
  11       0.00000000
  12      -0.04954410
  13      -0.03992463
  14      -0.00000000
  15       0.16946449
  16       0.13656129
  17       0.00000000
  18      -0.74024627
  19      -0.59652016
  20       0.00000000
  21       0.72464842
  22       0.58395078
  23       0.00000000
  24      -0.00000000
  25      -0.00000000
  26      -0.00286011
  27      -0.00230479
  28      -0.00000000
  29      -0.00000000
  30      -0.00000000
  31      -0.00000000
  32      -0.04545665
  33      -0.03663079
  34       0.00000000
  35      -0.00000000
  36       0.00000000
  37      -0.00000000
  38      -0.00000000
  39       0.00000000
  40      -0.00000000
  41       0.00000000
  42      -0.00000000
  43       0.00000000
  44      -0.00000000
  45      -0.00000000
  46      -0.04954410
  47      -0.03992463
  48       0.00000000
  49       0.16946449
  50       0.13656129
  51      -0.00000000
  52      -0.74024627
  53      -0.59652016
  54       0.00000000
  55       0.72464842
  56       0.58395078
  57       0.00000000
  58      -0.00000000
  59      -0.00000000
  60       0.00286011
  61       0.00230479
  62       0.00000000
  63      -0.00000000
  64      -0.00000000
  65      -0.00000000
  66       0.04545665
  67       0.03663079
  68      -0.00000000
Ene=     1.23887E-02
Spin= Alpha
Occup=   0.0000000000
   1       0.36986570
   2      -0.33689226
   3      -0.30208739
   4       1.68570789
   5      -1.04702754
   6       0.02014795
   7      -0.12120724
   8       0.07507706
   9       0.00141688
  10       0.00047284
  11      -1.82255122
  12       0.00000000
  13      -0.00000000
  14       0.34403930
  15       0.00000000
  16       0.00000000
  17      -0.50902123
  18      -0.00000000
  19       0.00000000
  20       0.01946489
  21       0.00000000
  22      -0.00000000
  23      -0.49569480
  24       0.03401812
  25       0.03401812
  26       0.00000000
  27      -0.00000000
  28      -0.00000000
  29       0.22097760
  30       0.12146315
  31       0.12146315
  32      -0.00000000
  33       0.00000000
  34      -0.00000000
  35       0.36986570
  36      -0.33689226
  37      -0.30208739
  38       1.68570789
  39      -1.04702754
  40       0.02014795
  41      -0.12120724
  42       0.07507706
  43       0.00141688
  44       0.00047284
  45       1.82255122
  46      -0.00000000
  47       0.00000000
  48      -0.34403930
  49       0.00000000
  50      -0.00000000
  51       0.50902123
  52      -0.00000000
  53       0.00000000
  54      -0.01946489
  55       0.00000000
  56      -0.00000000
  57      -0.49569480
  58       0.03401812
  59       0.03401812
  60       0.00000000
  61      -0.00000000
  62       0.00000000
  63       0.22097760
  64       0.12146315
  65       0.12146315
  66       0.00000000
  67       0.00000000
  68      -0.00000000
Ene=     1.28371E-02
Spin= Alpha
Occup=   0.0000000000
   1      -0.01749730
   2      -0.00626477
   3       2.00495992
   4      -0.11612272
   5       0.01514997
   6       0.07725399
   7       0.01055180
   8      -0.01446574
   9      -0.00201595
  10       0.00015635
  11       0.09510538
  12      -0.00000000
  13       0.00000000
  14       0.00891641
  15       0.00000000
  16      -0.00000000
  17       0.65411634
  18       0.00000000
  19       0.00000000
  20       1.20602653
  21      -0.00000000
  22      -0.00000000
  23       0.08985372
  24       0.13065023
  25       0.13065023
  26      -0.00000000
  27       0.00000000
  28      -0.00000000
  29       0.20513403
  30       0.12438681
  31       0.12438681
  32      -0.00000000
  33      -0.00000000
  34       0.00000000
  35       0.01749730
  36       0.00626477
  37      -2.00495992
  38       0.11612272
  39      -0.01514997
  40      -0.07725399
  41      -0.01055180
  42       0.01446574
  43       0.00201595
  44      -0.00015635
  45       0.09510538
  46       0.00000000
  47      -0.00000000
  48       0.00891641
  49      -0.00000000
  50       0.00000000
  51       0.65411634
  52       0.00000000
  53      -0.00000000
  54       1.20602653
  55      -0.00000000
  56       0.00000000
  57      -0.08985372
  58      -0.13065023
  59      -0.13065023
  60      -0.00000000
  61       0.00000000
  62      -0.00000000
  63      -0.20513403
  64      -0.12438681
  65      -0.12438681
  66       0.00000000
  67      -0.00000000
  68       0.00000000
Ene=     1.76041E-02
Spin= Alpha
Occup=   0.0000000000
   1       0.01072868
   2      -0.03561612
   3      -5.12611927
   4       3.02494701
   5      -1.36298576
   6       0.10445831
   7      -0.11879761
   8       0.06541965
   9      -0.00042480
  10       0.00064996
  11      -0.06192085
  12      -0.00000000
  13      -0.00000000
  14       0.06117565
  15       0.00000000
  16       0.00000000
  17      -1.91914332
  18      -0.00000000
  19      -0.00000000
  20       0.47877579
  21       0.00000000
  22       0.00000000
  23      -0.00780290
  24      -0.12076390
  25      -0.12076390
  26      -0.00000000
  27      -0.00000000
  28       0.00000000
  29      -0.14327153
  30       0.03802010
  31       0.03802010
  32       0.00000000
  33       0.00000000
  34       0.00000000
  35      -0.01072868
  36       0.03561612
  37       5.12611927
  38      -3.02494701
  39       1.36298576
  40      -0.10445831
  41       0.11879761
  42      -0.06541965
  43       0.00042480
  44      -0.00064996
  45      -0.06192085
  46       0.00000000
  47       0.00000000
  48       0.06117565
  49      -0.00000000
  50      -0.00000000
  51      -1.91914332
  52       0.00000000
  53       0.00000000
  54       0.47877579
  55      -0.00000000
  56      -0.00000000
  57       0.00780290
  58       0.12076390
  59       0.12076390
  60      -0.00000000
  61      -0.00000000
  62      -0.00000000
  63       0.14327153
  64      -0.03802010
  65      -0.03802010
  66       0.00000000
  67       0.00000000
  68       0.00000000
Ene=     1.83996E-02
Spin= Alpha
Occup=   0.0000000000
   1      -0.00000000
   2       0.00000000
   3       0.00000000
   4      -0.00000000
   5       0.00000000
   6      -0.00000000
   7       0.00000000
   8      -0.00000000
   9      -0.00000000
  10      -0.00000000
  11      -0.00000000
  12      -7.11807505
  13      -7.21323423
  14       0.00000000
  15       1.53942663
  16       1.56000671
  17       0.00000000
  18      -1.30683633
  19      -1.32430699
  20      -0.00000000
  21       0.62078185
  22       0.62908088
  23      -0.00000000
  24       0.00000000
  25       0.00000000
  26      -1.17063504
  27      -1.18628487
  28       0.00000000
  29       0.00000000
  30       0.00000000
  31       0.00000000
  32       0.31329245
  33       0.31748075
  34      -0.00000000
  35       0.00000000
  36      -0.00000000
  37      -0.00000000
  38       0.00000000
  39      -0.00000000
  40       0.00000000
  41      -0.00000000
  42       0.00000000
  43      -0.00000000
  44       0.00000000
  45       0.00000000
  46       7.11807505
  47       7.21323423
  48       0.00000000
  49      -1.53942663
  50      -1.56000671
  51       0.00000000
  52       1.30683633
  53       1.32430699
  54      -0.00000000
  55      -0.62078185
  56      -0.62908088
  57      -0.00000000
  58       0.00000000
  59      -0.00000000
  60      -1.17063504
  61      -1.18628487
  62      -0.00000000
  63      -0.00000000
  64       0.00000000
  65       0.00000000
  66       0.31329245
  67       0.31748075
  68      -0.00000000
Ene=     1.83996E-02
Spin= Alpha
Occup=   0.0000000000
   1       0.00000000
   2      -0.00000000
   3       0.00000000
   4      -0.00000000
   5       0.00000000
   6      -0.00000000
   7       0.00000000
   8      -0.00000000
   9      -0.00000000
  10      -0.00000000
  11       0.00000000
  12      -7.21323423
  13       7.11807505
  14      -0.00000000
  15       1.56000671
  16      -1.53942663
  17       0.00000000
  18      -1.32430699
  19       1.30683633
  20      -0.00000000
  21       0.62908088
  22      -0.62078185
  23      -0.00000000
  24      -0.00000000
  25      -0.00000000
  26      -1.18628487
  27       1.17063504
  28       0.00000000
  29      -0.00000000
  30      -0.00000000
  31      -0.00000000
  32       0.31748075
  33      -0.31329245
  34      -0.00000000
  35      -0.00000000
  36       0.00000000
  37      -0.00000000
  38       0.00000000
  39      -0.00000000
  40      -0.00000000
  41      -0.00000000
  42       0.00000000
  43       0.00000000
  44      -0.00000000
  45       0.00000000
  46       7.21323423
  47      -7.11807505
  48      -0.00000000
  49      -1.56000671
  50       1.53942663
  51       0.00000000
  52       1.32430699
  53      -1.30683633
  54      -0.00000000
  55      -0.62908088
  56       0.62078185
  57      -0.00000000
  58       0.00000000
  59       0.00000000
  60      -1.18628487
  61       1.17063504
  62      -0.00000000
  63       0.00000000
  64       0.00000000
  65       0.00000000
  66       0.31748075
  67      -0.31329245
  68       0.00000000
Ene=     2.21859E-02
Spin= Alpha
Occup=   0.0000000000
   1       1.73343525
   2      -1.70572216
   3       1.78359739
   4      -1.19930812
   5       0.45785424
   6       0.02955961
   7       0.03618914
   8      -0.02595649
   9      -0.00131176
  10      -0.00004996
  11      -6.43612782
  12      -0.00000000
  13      -0.00000000
  14       1.75794753
  15       0.00000000
  16       0.00000000
  17      -1.31478767
  18       0.00000000
  19       0.00000000
  20       0.63222888
  21      -0.00000000
  22      -0.00000000
  23      -1.83332525
  24       0.05804100
  25       0.05804100
  26      -0.00000000
  27      -0.00000000
  28       0.00000000
  29       0.98696378
  30       0.30067431
  31       0.30067431
  32       0.00000000
  33       0.00000000
  34      -0.00000000
  35       1.73343525
  36      -1.70572216
  37       1.78359739
  38      -1.19930812
  39       0.45785424
  40       0.02955961
  41       0.03618914
  42      -0.02595649
  43      -0.00131176
  44      -0.00004996
  45       6.43612782
  46       0.00000000
  47       0.00000000
  48      -1.75794753
  49      -0.00000000
  50      -0.00000000
  51       1.31478767
  52      -0.00000000
  53      -0.00000000
  54      -0.63222888
  55       0.00000000
  56       0.00000000
  57      -1.83332525
  58       0.05804100
  59       0.05804100
  60      -0.00000000
  61      -0.00000000
  62      -0.00000000
  63       0.98696378
  64       0.30067431
  65       0.30067431
  66       0.00000000
  67       0.00000000
  68      -0.00000000
Ene=     2.50709E-02
Spin= Alpha
Occup=   0.0000000000
   1      -0.07158078
   2      -0.32275596
   3      -4.13197692
   4       0.33895143
   5      -0.11418448
   6       0.05324413
   7      -0.00608524
   8      -0.00116567
   9      -0.00105634
  10       0.00013801
  11       0.36937659
  12      -0.00000000
  13      -0.00000000
  14       0.78100982
  15       0.00000000
  16       0.00000000
  17      -4.40842277
  18      -0.00000000
  19      -0.00000000
  20       1.01886711
  21      -0.00000000
  22      -0.00000000
  23       0.61844837
  24       0.28880956
  25       0.28880956
  26      -0.00000000
  27      -0.00000000
  28      -0.00000000
  29       1.03478662
  30       1.34766661
  31       1.34766661
  32       0.00000000
  33       0.00000000
  34       0.00000000
  35       0.07158078
  36       0.32275596
  37       4.13197692
  38      -0.33895143
  39       0.11418448
  40      -0.05324413
  41       0.00608524
  42       0.00116567
  43       0.00105634
  44      -0.00013801
  45       0.36937659
  46       0.00000000
  47       0.00000000
  48       0.78100982
  49      -0.00000000
  50      -0.00000000
  51      -4.40842277
  52       0.00000000
  53       0.00000000
  54       1.01886711
  55       0.00000000
  56      -0.00000000
  57      -0.61844837
  58      -0.28880956
  59      -0.28880956
  60      -0.00000000
  61      -0.00000000
  62       0.00000000
  63      -1.03478662
  64      -1.34766661
  65      -1.34766661
  66       0.00000000
  67       0.00000000
  68      -0.00000000
Ene=     2.88583E-02
Spin= Alpha
Occup=   0.0000000000
   1      -5.07573351
   2      -2.14020137
   3       4.76628950
   4      -2.11834033
   5       0.42899122
   6       0.13206173
   7       0.01855417
   8      -0.02509633
   9      -0.00351875
  10       0.00026660
  11       4.77614474
  12       0.00000000