[Molden Format]
[Atoms] AU
E+       1       4     0.00000000     0.00000000     0.00000000
E+       2       4    38.00000000     0.00000000     0.00000000
[GTO]
  1 0
s  1 1.00
   1.0000000000E-04   1.0000000000E+00
s  1 1.00
   3.0000000000E-04   1.0000000000E+00
s  1 1.00
   9.0000000000E-04   1.0000000000E+00
s  1 1.00
   2.7000000000E-03   1.0000000000E+00
s  1 1.00
   8.1000000000E-03   1.0000000000E+00
s  1 1.00
   2.4300000000E-02   1.0000000000E+00
s  1 1.00
   7.2900000000E-02   1.0000000000E+00
s  1 1.00
   2.1870000000E-01   1.0000000000E+00
s  1 1.00
   6.5610000000E-01   1.0000000000E+00
s  1 1.00
   1.9683000000E+00   1.0000000000E+00
p  1 1.00
   1.0000000000E-04   1.0000000000E+00
p  1 1.00
   3.0000000000E-04   1.0000000000E+00
p  1 1.00
   9.0000000000E-04   1.0000000000E+00
p  1 1.00
   2.7000000000E-03   1.0000000000E+00
d  1 1.00
   1.0000000000E-04   1.0000000000E+00
d  1 1.00
   3.0000000000E-04   1.0000000000E+00
 
  2 0
s  1 1.00
   1.0000000000E-04   1.0000000000E+00
s  1 1.00
   3.0000000000E-04   1.0000000000E+00
s  1 1.00
   9.0000000000E-04   1.0000000000E+00
s  1 1.00
   2.7000000000E-03   1.0000000000E+00
s  1 1.00
   8.1000000000E-03   1.0000000000E+00
s  1 1.00
   2.4300000000E-02   1.0000000000E+00
s  1 1.00
   7.2900000000E-02   1.0000000000E+00
s  1 1.00
   2.1870000000E-01   1.0000000000E+00
s  1 1.00
   6.5610000000E-01   1.0000000000E+00
s  1 1.00
   1.9683000000E+00   1.0000000000E+00
p  1 1.00
   1.0000000000E-04   1.0000000000E+00
p  1 1.00
   3.0000000000E-04   1.0000000000E+00
p  1 1.00
   9.0000000000E-04   1.0000000000E+00
p  1 1.00
   2.7000000000E-03   1.0000000000E+00
d  1 1.00
   1.0000000000E-04   1.0000000000E+00
d  1 1.00
   3.0000000000E-04   1.0000000000E+00
 
 
[MO]
Ene=    -3.86118E-03
Spin= Alpha
Occup=   1.0000000000
   1      -0.04021181
   2       0.02904035
   3       0.01310352
   4       0.19829821
   5       0.29954484
   6       0.19758978
   7       0.12253064
   8      -0.09899393
   9      -0.00676903
  10       0.00009449
  11       0.12711017
  12       0.00000000
  13       0.00000000
  14      -0.04195374
  15       0.00000000
  16       0.00000000
  17       0.03384241
  18      -0.00000000
  19      -0.00000000
  20       0.02325717
  21       0.00000000
  22       0.00000000
  23       0.04161928
  24      -0.00122599
  25      -0.00122599
  26       0.00000000
  27       0.00000000
  28      -0.00000000
  29      -0.02256372
  30      -0.00486632
  31      -0.00486632
  32       0.00000000
  33       0.00000000
  34       0.00000000
  35      -0.04021181
  36       0.02904035
  37       0.01310352
  38       0.19829821
  39       0.29954484
  40       0.19758978
  41       0.12253064
  42      -0.09899393
  43      -0.00676903
  44       0.00009449
  45      -0.12711017
  46      -0.00000000
  47      -0.00000000
  48       0.04195374
  49      -0.00000000
  50      -0.00000000
  51      -0.03384241
  52       0.00000000
  53       0.00000000
  54      -0.02325717
  55      -0.00000000
  56       0.00000000
  57       0.04161928
  58      -0.00122599
  59      -0.00122599
  60       0.00000000
  61       0.00000000
  62       0.00000000
  63      -0.02256372
  64      -0.00486632
  65      -0.00486632
  66       0.00000000
  67       0.00000000
  68      -0.00000000
Ene=    -3.54577E-03
Spin= Alpha
Occup=   0.0000000000
   1      -0.00063343
   2      -0.00332702
   3      -0.01235330
   4      -0.26528796
   5      -0.28644824
   6      -0.21581140
   7      -0.12419236
   8       0.10197490
   9       0.00727255
  10      -0.00013994
  11       0.00280314
  12       0.00000000
  13       0.00000000
  14       0.00774684
  15      -0.00000000
  16       0.00000000
  17      -0.02535668
  18       0.00000000
  19      -0.00000000
  20      -0.05267265
  21      -0.00000000
  22       0.00000000
  23       0.00466558
  24       0.00117865
  25       0.00117865
  26       0.00000000
  27       0.00000000
  28       0.00000000
  29       0.00785298
  30       0.01137135
  31       0.01137135
  32      -0.00000000
  33       0.00000000
  34      -0.00000000
  35       0.00063343
  36       0.00332702
  37       0.01235330
  38       0.26528796
  39       0.28644824
  40       0.21581140
  41       0.12419236
  42      -0.10197490
  43      -0.00727255
  44       0.00013994
  45       0.00280314
  46      -0.00000000
  47      -0.00000000
  48       0.00774684
  49       0.00000000
  50      -0.00000000
  51      -0.02535668
  52      -0.00000000
  53       0.00000000
  54      -0.05267265
  55       0.00000000
  56      -0.00000000
  57      -0.00466558
  58      -0.00117865
  59      -0.00117865
  60       0.00000000
  61       0.00000000
  62      -0.00000000
  63      -0.00785298
  64      -0.01137135
  65      -0.01137135
  66      -0.00000000
  67       0.00000000
  68       0.00000000
Ene=     4.22296E-03
Spin= Alpha
Occup=   0.0000000000
   1      -0.67008091
   2      -0.07598147
   3       1.01214140
   4      -0.64922602
   5      -0.06131952
   6      -0.11341496
   7      -0.03751832
   8       0.03556293
   9       0.00339067
  10      -0.00016679
  11       1.29060505
  12      -0.00000000
  13      -0.00000000
  14      -0.40581647
  15       0.00000000
  16      -0.00000000
  17       0.47119806
  18      -0.00000000
  19      -0.00000000
  20      -0.04492633
  21       0.00000000
  22       0.00000000
  23       0.45595254
  24       0.02602324
  25       0.02602324
  26      -0.00000000
  27      -0.00000000
  28       0.00000000
  29      -0.06107067
  30       0.08880933
  31       0.08880933
  32       0.00000000
  33      -0.00000000
  34      -0.00000000
  35      -0.67008091
  36      -0.07598147
  37       1.01214140
  38      -0.64922602
  39      -0.06131952
  40      -0.11341496
  41      -0.03751832
  42       0.03556293
  43       0.00339067
  44      -0.00016679
  45      -1.29060505
  46       0.00000000
  47       0.00000000
  48       0.40581647
  49      -0.00000000
  50       0.00000000
  51      -0.47119806
  52       0.00000000
  53       0.00000000
  54       0.04492633
  55      -0.00000000
  56      -0.00000000
  57       0.45595254
  58       0.02602324
  59       0.02602324
  60      -0.00000000
  61      -0.00000000
  62      -0.00000000
  63      -0.06107067
  64       0.08880933
  65       0.08880933
  66       0.00000000
  67      -0.00000000
  68       0.00000000
Ene=     6.41237E-03
Spin= Alpha
Occup=   0.0000000000
   1      -0.00000000
   2      -0.00000000
   3       0.00000000
   4      -0.00000000
   5      -0.00000000
   6       0.00000000
   7      -0.00000000
   8       0.00000000
   9      -0.00000000
  10      -0.00000000
  11       0.00000000
  12       0.01362563
  13       0.02419275
  14       0.00000000
  15      -0.04153962
  16      -0.07375495
  17      -0.00000000
  18       0.14308546
  19       0.25405287
  20       0.00000000
  21       0.20331470
  22       0.36099185
  23       0.00000000
  24       0.00000000
  25       0.00000000
  26      -0.00562290
  27      -0.00998364
  28      -0.00000000
  29       0.00000000
  30       0.00000000
  31       0.00000000
  32       0.01809907
  33       0.03213549
  34      -0.00000000
  35      -0.00000000
  36      -0.00000000
  37      -0.00000000
  38       0.00000000
  39      -0.00000000
  40       0.00000000
  41      -0.00000000
  42      -0.00000000
  43       0.00000000
  44      -0.00000000
  45      -0.00000000
  46       0.01362563
  47       0.02419275
  48      -0.00000000
  49      -0.04153962
  50      -0.07375495
  51      -0.00000000
  52       0.14308546
  53       0.25405287
  54      -0.00000000
  55       0.20331470
  56       0.36099185
  57       0.00000000
  58      -0.00000000
  59      -0.00000000
  60       0.00562290
  61       0.00998364
  62       0.00000000
  63      -0.00000000
  64      -0.00000000
  65      -0.00000000
  66      -0.01809907
  67      -0.03213549
  68       0.00000000
Ene=     6.41237E-03
Spin= Alpha
Occup=   0.0000000000
   1      -0.00000000
   2       0.00000000
   3      -0.00000000
   4      -0.00000000
   5       0.00000000
   6       0.00000000
   7      -0.00000000
   8       0.00000000
   9      -0.00000000
  10       0.00000000
  11       0.00000000
  12      -0.02419275
  13       0.01362563
  14      -0.00000000
  15       0.07375495
  16      -0.04153962
  17      -0.00000000
  18      -0.25405287
  19       0.14308546
  20      -0.00000000
  21      -0.36099185
  22       0.20331470
  23       0.00000000
  24      -0.00000000
  25       0.00000000
  26       0.00998364
  27      -0.00562290
  28      -0.00000000
  29      -0.00000000
  30      -0.00000000
  31      -0.00000000
  32      -0.03213549
  33       0.01809907
  34       0.00000000
  35      -0.00000000
  36       0.00000000
  37      -0.00000000
  38       0.00000000
  39      -0.00000000
  40       0.00000000
  41      -0.00000000
  42      -0.00000000
  43       0.00000000
  44      -0.00000000
  45      -0.00000000
  46      -0.02419275
  47       0.01362563
  48       0.00000000
  49       0.07375495
  50      -0.04153962
  51      -0.00000000
  52      -0.25405287
  53       0.14308546
  54       0.00000000
  55      -0.36099185
  56       0.20331470
  57       0.00000000
  58      -0.00000000
  59      -0.00000000
  60      -0.00998364
  61       0.00562290
  62       0.00000000
  63      -0.00000000
  64      -0.00000000
  65      -0.00000000
  66       0.03213549
  67      -0.01809907
  68      -0.00000000
Ene=     8.76521E-03
Spin= Alpha
Occup=   0.0000000000
   1      -0.00000000
   2       0.00000000
   3      -0.00000000
   4      -0.00000000
   5       0.00000000
   6      -0.00000000
   7       0.00000000
   8      -0.00000000
   9      -0.00000000
  10       0.00000000
  11      -0.00000000
  12       0.15579397
  13       0.08153285
  14       0.00000000
  15       0.02714113
  16       0.01420398
  17      -0.00000000
  18       0.04870468
  19       0.02548899
  20      -0.00000000
  21       0.65331933
  22       0.34190659
  23      -0.00000000
  24      -0.00000000
  25      -0.00000000
  26       0.02700791
  27       0.01413425
  28       0.00000000
  29       0.00000000
  30      -0.00000000
  31      -0.00000000
  32       0.01918051
  33       0.01003788
  34      -0.00000000
  35       0.00000000
  36      -0.00000000
  37       0.00000000
  38      -0.00000000
  39       0.00000000
  40       0.00000000
  41      -0.00000000
  42       0.00000000
  43      -0.00000000
  44       0.00000000
  45      -0.00000000
  46      -0.15579397
  47      -0.08153285
  48       0.00000000
  49      -0.02714113
  50      -0.01420398
  51      -0.00000000
  52      -0.04870468
  53      -0.02548899
  54       0.00000000
  55      -0.65331933
  56      -0.34190659
  57       0.00000000
  58       0.00000000
  59       0.00000000
  60       0.02700791
  61       0.01413425
  62      -0.00000000
  63      -0.00000000
  64       0.00000000
  65       0.00000000
  66       0.01918051
  67       0.01003788
  68       0.00000000
Ene=     8.76521E-03
Spin= Alpha
Occup=   0.0000000000
   1      -0.00000000
   2      -0.00000000
   3       0.00000000
   4       0.00000000
   5      -0.00000000
   6      -0.00000000
   7      -0.00000000
   8       0.00000000
   9      -0.00000000
  10       0.00000000
  11      -0.00000000
  12      -0.08153285
  13       0.15579397
  14      -0.00000000
  15      -0.01420398
  16       0.02714113
  17       0.00000000
  18      -0.02548899
  19       0.04870468
  20       0.00000000
  21      -0.34190659
  22       0.65331933
  23      -0.00000000
  24       0.00000000
  25      -0.00000000
  26      -0.01413425
  27       0.02700791
  28      -0.00000000
  29      -0.00000000
  30       0.00000000
  31       0.00000000
  32      -0.01003788
  33       0.01918051
  34       0.00000000
  35       0.00000000
  36       0.00000000
  37      -0.00000000
  38       0.00000000
  39       0.00000000
  40      -0.00000000
  41       0.00000000
  42      -0.00000000
  43       0.00000000
  44      -0.00000000
  45       0.00000000
  46       0.08153285
  47      -0.15579397
  48      -0.00000000
  49       0.01420398
  50      -0.02714113
  51       0.00000000
  52       0.02548899
  53      -0.04870468
  54      -0.00000000
  55       0.34190659
  56      -0.65331933
  57      -0.00000000
  58       0.00000000
  59       0.00000000
  60      -0.01413425
  61       0.02700791
  62      -0.00000000
  63       0.00000000
  64       0.00000000
  65       0.00000000
  66      -0.01003788
  67       0.01918051
  68       0.00000000
Ene=     9.50607E-03
Spin= Alpha
Occup=   0.0000000000
   1       0.02969542
   2      -0.00024528
   3      -2.43370485
   4      -0.19714894
   5       0.56813592
   6       0.02186026
   7       0.08092002
   8      -0.05344856
   9      -0.00170007
  10      -0.00023765
  11      -0.14191157
  12       0.00000000
  13       0.00000000
  14       0.02132160
  15      -0.00000000
  16      -0.00000000
  17      -0.93696038
  18       0.00000000
  19      -0.00000000
  20      -0.34839429
  21      -0.00000000
  22       0.00000000
  23      -0.10741208
  24      -0.17980821
  25      -0.17980821
  26       0.00000000
  27       0.00000000
  28      -0.00000000
  29      -0.26313877
  30      -0.12597550
  31      -0.12597550
  32      -0.00000000
  33      -0.00000000
  34      -0.00000000
  35      -0.02969542
  36       0.00024528
  37       2.43370485
  38       0.19714894
  39      -0.56813592
  40      -0.02186026
  41      -0.08092002
  42       0.05344856
  43       0.00170007
  44       0.00023765
  45      -0.14191157
  46      -0.00000000
  47      -0.00000000
  48       0.02132160
  49       0.00000000
  50       0.00000000
  51      -0.93696038
  52      -0.00000000
  53      -0.00000000
  54      -0.34839429
  55       0.00000000
  56      -0.00000000
  57       0.10741208
  58       0.17980821
  59       0.17980821
  60       0.00000000
  61       0.00000000
  62       0.00000000
  63       0.26313877
  64       0.12597550
  65       0.12597550
  66      -0.00000000
  67      -0.00000000
  68      -0.00000000
Ene=     9.82487E-03
Spin= Alpha
Occup=   0.0000000000
   1      -0.39080894
   2       0.27950070
   3       0.49802661
   4      -1.07951861
   5       0.55910383
   6      -0.05286656
   7       0.06381877
   8      -0.03503474
   9       0.00037304
  10      -0.00036755
  11       1.44949998
  12      -0.00000000
  13      -0.00000000
  14      -0.39515086
  15      -0.00000000
  16       0.00000000
  17       0.54193107
  18      -0.00000000
  19       0.00000000
  20      -0.73191238
  21      -0.00000000
  22       0.00000000
  23       0.46190839
  24      -0.02366235
  25      -0.02366235
  26      -0.00000000
  27      -0.00000000
  28       0.00000000
  29      -0.22290766
  30      -0.08149376
  31      -0.08149376
  32      -0.00000000
  33       0.00000000
  34       0.00000000
  35      -0.39080894
  36       0.27950070
  37       0.49802661
  38      -1.07951861
  39       0.55910383
  40      -0.05286656
  41       0.06381877
  42      -0.03503474
  43       0.00037304
  44      -0.00036755
  45      -1.44949998
  46       0.00000000
  47       0.00000000
  48       0.39515086
  49       0.00000000
  50      -0.00000000
  51      -0.54193107
  52       0.00000000
  53      -0.00000000
  54       0.73191238
  55       0.00000000
  56      -0.00000000
  57       0.46190839
  58      -0.02366235
  59      -0.02366235
  60      -0.00000000
  61       0.00000000
  62       0.00000000
  63      -0.22290766
  64      -0.08149376
  65      -0.08149376
  66      -0.00000000
  67       0.00000000
  68      -0.00000000
Ene=     1.36347E-02
Spin= Alpha
Occup=   0.0000000000
   1      -0.00000000
   2      -0.00000000
   3       0.00000000
   4      -0.00000000
   5       0.00000000
   6      -0.00000000
   7       0.00000000
   8      -0.00000000
   9       0.00000000
  10       0.00000000
  11       0.00000000
  12       0.07070943
  13       0.00892067
  14      -0.00000000
  15      -0.23010674
  16      -0.02903017
  17      -0.00000000
  18       0.97204428
  19       0.12263269
  20       0.00000000
  21      -0.93041307
  22      -0.11738051
  23       0.00000000
  24       0.00000000
  25       0.00000000
  26      -0.01755848
  27      -0.00221517
  28       0.00000000
  29       0.00000000
  30       0.00000000
  31       0.00000000
  32       0.07974246
  33       0.01006027
  34      -0.00000000
  35      -0.00000000
  36      -0.00000000
  37       0.00000000
  38      -0.00000000
  39       0.00000000
  40      -0.00000000
  41       0.00000000
  42      -0.00000000
  43      -0.00000000
  44       0.00000000
  45      -0.00000000
  46       0.07070943
  47       0.00892067
  48       0.00000000
  49      -0.23010674
  50      -0.02903017
  51      -0.00000000
  52       0.97204428
  53       0.12263269
  54       0.00000000
  55      -0.93041307
  56      -0.11738051
  57       0.00000000
  58      -0.00000000
  59      -0.00000000
  60       0.01755848
  61       0.00221517
  62      -0.00000000
  63      -0.00000000
  64      -0.00000000
  65      -0.00000000
  66      -0.07974246
  67      -0.01006027
  68       0.00000000
Ene=     1.36347E-02
Spin= Alpha
Occup=   0.0000000000
   1       0.00000000
   2       0.00000000
   3      -0.00000000
   4       0.00000000
   5      -0.00000000
   6       0.00000000
   7      -0.00000000
   8       0.00000000
   9      -0.00000000
  10      -0.00000000
  11      -0.00000000
  12       0.00892067
  13      -0.07070943
  14      -0.00000000
  15      -0.02903017
  16       0.23010674
  17      -0.00000000
  18       0.12263269
  19      -0.97204428
  20      -0.00000000
  21      -0.11738051
  22       0.93041307
  23      -0.00000000
  24       0.00000000
  25       0.00000000
  26      -0.00221517
  27       0.01755848
  28      -0.00000000
  29       0.00000000
  30       0.00000000
  31       0.00000000
  32       0.01006027
  33      -0.07974246
  34       0.00000000
  35       0.00000000
  36       0.00000000
  37      -0.00000000
  38       0.00000000
  39      -0.00000000
  40       0.00000000
  41      -0.00000000
  42       0.00000000
  43      -0.00000000
  44       0.00000000
  45       0.00000000
  46       0.00892067
  47      -0.07070943
  48       0.00000000
  49      -0.02903017
  50       0.23010674
  51       0.00000000
  52       0.12263269
  53      -0.97204428
  54       0.00000000
  55      -0.11738051
  56       0.93041307
  57      -0.00000000
  58      -0.00000000
  59      -0.00000000
  60       0.00221517
  61      -0.01755848
  62      -0.00000000
  63      -0.00000000
  64      -0.00000000
  65      -0.00000000
  66      -0.01006027
  67       0.07974246
  68      -0.00000000
Ene=     1.40881E-02
Spin= Alpha
Occup=   0.0000000000
   1       0.17898611
   2      -0.09846627
   3      -0.29030053
   4       1.46755656
   5      -0.87581173
   6      -0.01018547
   7      -0.09575905
   8       0.06171147
   9       0.00171677
  10       0.00031233
  11      -0.75253887
  12       0.00000000
  13      -0.00000000
  14       0.10385217
  15      -0.00000000
  16       0.00000000
  17      -0.30537085
  18       0.00000000
  19       0.00000000
  20      -0.19987687
  21      -0.00000000
  22      -0.00000000
  23      -0.23284734
  24       0.01476683
  25       0.01476683
  26       0.00000000
  27      -0.00000000
  28       0.00000000
  29       0.05991846
  30       0.05552143
  31       0.05552143
  32       0.00000000
  33       0.00000000
  34      -0.00000000
  35       0.17898611
  36      -0.09846627
  37      -0.29030053
  38       1.46755656
  39      -0.87581173
  40      -0.01018547
  41      -0.09575905
  42       0.06171147
  43       0.00171677
  44       0.00031233
  45       0.75253887
  46      -0.00000000
  47       0.00000000
  48      -0.10385217
  49       0.00000000
  50      -0.00000000
  51       0.30537085
  52      -0.00000000
  53       0.00000000
  54       0.19987687
  55      -0.00000000
  56      -0.00000000
  57      -0.23284734
  58       0.01476683
  59       0.01476683
  60       0.00000000
  61      -0.00000000
  62      -0.00000000
  63       0.05991846
  64       0.05552143
  65       0.05552143
  66       0.00000000
  67       0.00000000
  68       0.00000000
Ene=     1.45766E-02
Spin= Alpha
Occup=   0.0000000000
   1       0.01216957
   2       0.04210470
   3       0.17369596
   4      -0.21670727
   5       0.08945448
   6      -0.07033140
   7       0.00279208
   8       0.00527364
   9       0.00164180
  10      -0.00018531
  11      -0.05504737
  12      -0.00000000
  13      -0.00000000
  14      -0.08245023
  15       0.00000000
  16       0.00000000
  17       0.31152030
  18      -0.00000000
  19      -0.00000000
  20      -1.04582735
  21       0.00000000
  22       0.00000000
  23      -0.07539257
  24      -0.04217610
  25      -0.04217610
  26      -0.00000000
  27      -0.00000000
  28       0.00000000
  29      -0.12541280
  30      -0.15237055
  31      -0.15237055
  32       0.00000000
  33       0.00000000
  34      -0.00000000
  35      -0.01216957
  36      -0.04210470
  37      -0.17369596
  38       0.21670727
  39      -0.08945448
  40       0.07033140
  41      -0.00279208
  42      -0.00527364
  43      -0.00164180
  44       0.00018531
  45      -0.05504737
  46       0.00000000
  47       0.00000000
  48      -0.08245023
  49      -0.00000000
  50      -0.00000000
  51       0.31152030
  52       0.00000000
  53       0.00000000
  54      -1.04582735
  55      -0.00000000
  56      -0.00000000
  57       0.07539257
  58       0.04217610
  59       0.04217610
  60      -0.00000000
  61      -0.00000000
  62      -0.00000000
  63       0.12541280
  64       0.15237055
  65       0.15237055
  66       0.00000000
  67       0.00000000
  68       0.00000000
Ene=     1.81968E-02
Spin= Alpha
Occup=   0.0000000000
   1       0.01911709
   2      -0.05351687
   3      -4.43032706
   4       2.74601921
   5      -1.19487740
   6       0.04573017
   7      -0.10765170
   8       0.06361864
   9       0.00061354
  10       0.00048843
  11      -0.09604863
  12       0.00000000
  13      -0.00000000
  14       0.10051569
  15      -0.00000000
  16       0.00000000
  17      -1.90665623
  18       0.00000000
  19      -0.00000000
  20       0.18720645
  21      -0.00000000
  22       0.00000000
  23      -0.02717958
  24      -0.15638565
  25      -0.15638565
  26       0.00000000
  27      -0.00000000
  28      -0.00000000
  29      -0.17192168
  30       0.03388887
  31       0.03388887
  32      -0.00000000
  33       0.00000000
  34       0.00000000
  35      -0.01911709
  36       0.05351687
  37       4.43032706
  38      -2.74601921
  39       1.19487740
  40      -0.04573017
  41       0.10765170
  42      -0.06361864
  43      -0.00061354
  44      -0.00048843
  45      -0.09604863
  46      -0.00000000
  47       0.00000000
  48       0.10051569
  49       0.00000000
  50      -0.00000000
  51      -1.90665623
  52      -0.00000000
  53       0.00000000
  54       0.18720645
  55       0.00000000
  56      -0.00000000
  57       0.02717958
  58       0.15638565
  59       0.15638565
  60       0.00000000
  61      -0.00000000
  62       0.00000000
  63       0.17192168
  64      -0.03388887
  65      -0.03388887
  66      -0.00000000
  67       0.00000000
  68      -0.00000000
Ene=     2.00388E-02
Spin= Alpha
Occup=   0.0000000000
   1      -0.00000000
   2      -0.00000000
   3      -0.00000000
   4       0.00000000
   5      -0.00000000
   6      -0.00000000
   7      -0.00000000
   8       0.00000000
   9      -0.00000000
  10       0.00000000
  11      -0.00000000
  12       0.06040199
  13       6.85799384
  14      -0.00000000
  15      -0.01340238
  16      -1.52169515
  17      -0.00000000
  18       0.01519986
  19       1.72577987
  20       0.00000000
  21      -0.00726490
  22      -0.82485073
  23      -0.00000000
  24       0.00000000
  25       0.00000000
  26       0.01129719
  27       1.28267390
  28       0.00000000
  29      -0.00000000
  30       0.00000000
  31       0.00000000
  32      -0.00264549
  33      -0.30036707
  34      -0.00000000
  35       0.00000000
  36       0.00000000
  37       0.00000000
  38      -0.00000000
  39       0.00000000
  40      -0.00000000
  41       0.00000000
  42      -0.00000000
  43      -0.00000000
  44       0.00000000
  45       0.00000000
  46      -0.06040199
  47      -6.85799384
  48      -0.00000000
  49       0.01340238
  50       1.52169515
  51      -0.00000000
  52      -0.01519986
  53      -1.72577987
  54      -0.00000000
  55       0.00726490
  56       0.82485073
  57      -0.00000000
  58      -0.00000000
  59      -0.00000000
  60       0.01129719
  61       1.28267390
  62      -0.00000000
  63       0.00000000
  64      -0.00000000
  65      -0.00000000
  66      -0.00264549
  67      -0.30036707
  68       0.00000000
Ene=     2.00388E-02
Spin= Alpha
Occup=   0.0000000000
   1      -0.00000000
   2       0.00000000
   3       0.00000000
   4      -0.00000000
   5       0.00000000
   6       0.00000000
   7       0.00000000
   8      -0.00000000
   9      -0.00000000
  10      -0.00000000
  11      -0.00000000
  12       6.85799384
  13      -0.06040199
  14       0.00000000
  15      -1.52169515
  16       0.01340238
  17       0.00000000
  18       1.72577987
  19      -0.01519986
  20       0.00000000
  21      -0.82485073
  22       0.00726490
  23      -0.00000000
  24       0.00000000
  25      -0.00000000
  26       1.28267390
  27      -0.01129719
  28      -0.00000000
  29       0.00000000
  30      -0.00000000
  31      -0.00000000
  32      -0.30036707
  33       0.00264549
  34       0.00000000
  35       0.00000000
  36      -0.00000000
  37      -0.00000000
  38       0.00000000
  39      -0.00000000
  40       0.00000000
  41      -0.00000000
  42       0.00000000
  43      -0.00000000
  44       0.00000000
  45       0.00000000
  46      -6.85799384
  47       0.06040199
  48       0.00000000
  49       1.52169515
  50      -0.01340238
  51       0.00000000
  52      -1.72577987
  53       0.01519986
  54      -0.00000000
  55       0.82485073
  56      -0.00726490
  57      -0.00000000
  58      -0.00000000
  59      -0.00000000
  60       1.28267390
  61      -0.01129719
  62       0.00000000
  63      -0.00000000
  64       0.00000000
  65       0.00000000
  66      -0.30036707
  67       0.00264549
  68      -0.00000000
Ene=     2.48523E-02
Spin= Alpha
Occup=   0.0000000000
   1       1.24376330
   2      -1.43871562
   3       1.81943398
   4      -1.23063141
   5       0.43332454
   6       0.04555771
   7       0.03136419
   8      -0.02426796
   9      -0.00155768
  10      -0.00000137
  11      -4.39715529
  12       0.00000000
  13       0.00000000
  14       1.16526510
  15      -0.00000000
  16      -0.00000000
  17      -1.20840602
  18       0.00000000
  19      -0.00000000
  20       0.62637462
  21       0.00000000
  22       0.00000000
  23      -1.42283954
  24       0.06161268
  25       0.06161268
  26       0.00000000
  27       0.00000000
  28       0.00000000
  29       0.76159209
  30       0.30697576
  31       0.30697576
  32      -0.00000000
  33      -0.00000000
  34      -0.00000000
  35       1.24376330
  36      -1.43871562
  37       1.81943398
  38      -1.23063141
  39       0.43332454
  40       0.04555771
  41       0.03136419
  42      -0.02426796
  43      -0.00155768
  44      -0.00000137
  45       4.39715529
  46      -0.00000000
  47      -0.00000000
  48      -1.16526510
  49       0.00000000
  50       0.00000000
  51       1.20840602
  52      -0.00000000
  53       0.00000000
  54      -0.62637462
  55      -0.00000000
  56      -0.00000000
  57      -1.42283954
  58       0.06161268
  59       0.06161268
  60       0.00000000
  61       0.00000000
  62      -0.00000000
  63       0.76159209
  64       0.30697576
  65       0.30697576
  66      -0.00000000
  67      -0.00000000
  68       0.00000000
Ene=     2.70677E-02
Spin= Alpha
Occup=   0.0000000000
   1       0.06649745
   2       0.34475406
   3       1.53807517
   4       0.27057025
   5      -0.10419718
   6      -0.02857182
   7      -0.00811913
   8       0.00776979
   9       0.00073476
  10      -0.00003231
  11      -0.29600671
  12      -0.00000000
  13      -0.00000000
  14      -0.73443074
  15       0.00000000
  16       0.00000000
  17       3.25746846
  18      -0.00000000
  19      -0.00000000
  20      -0.80112318
  21       0.00000000
  22      -0.00000000
  23      -0.46403094
  24      -0.18105347
  25      -0.18105347
  26      -0.00000000
  27      -0.00000000
  28       0.00000000
  29      -0.81197286
  30      -1.04451716
  31      -1.04451716
  32       0.00000000
  33       0.00000000
  34      -0.00000000
  35      -0.06649745
  36      -0.34475406
  37      -1.53807517
  38      -0.27057025
  39       0.10419718
  40       0.02857182
  41       0.00811913
  42      -0.00776979
  43      -0.00073476
  44       0.00003231
  45      -0.29600671
  46       0.00000000
  47       0.00000000
  48      -0.73443074
  49      -0.00000000
  50      -0.00000000
  51       3.25746846
  52       0.00000000
  53       0.00000000
  54      -0.80112318
  55      -0.00000000
  56       0.00000000
  57       0.46403094
  58       0.18105347
  59       0.18105347
  60      -0.00000000
  61      -0.00000000
  62      -0.00000000
  63       0.81197286
  64       1.04451716
  65       1.04451716
  66       0.00000000
  67       0.00000000
  68       0.00000000
Ene=     2.96060E-02
Spin= Alpha
Occup=   0.0000000000
   1      -5.31187617
   2      -2.31417785
   3       4.78775770
   4      -2.10426275
   5       0.43925860
   6       0.11383616
   7       0.02022333
   8      -0.02397049
   9      -0.00299816
  10       0.00020242
  11       4.49249241
  12      -0.00000000