[Molden Format]
[Atoms] AU
E+       1       4     0.00000000     0.00000000     0.00000000
E+       2       4     9.80000000     0.00000000     0.00000000
[GTO]
  1 0
s  1 1.00
   1.0000000000E-04   1.0000000000E+00
s  1 1.00
   3.0000000000E-04   1.0000000000E+00
s  1 1.00
   9.0000000000E-04   1.0000000000E+00
s  1 1.00
   2.7000000000E-03   1.0000000000E+00
s  1 1.00
   8.1000000000E-03   1.0000000000E+00
s  1 1.00
   2.4300000000E-02   1.0000000000E+00
s  1 1.00
   7.2900000000E-02   1.0000000000E+00
s  1 1.00
   2.1870000000E-01   1.0000000000E+00
s  1 1.00
   6.5610000000E-01   1.0000000000E+00
s  1 1.00
   1.9683000000E+00   1.0000000000E+00
p  1 1.00
   1.0000000000E-04   1.0000000000E+00
p  1 1.00
   3.0000000000E-04   1.0000000000E+00
p  1 1.00
   9.0000000000E-04   1.0000000000E+00
p  1 1.00
   2.7000000000E-03   1.0000000000E+00
d  1 1.00
   1.0000000000E-04   1.0000000000E+00
d  1 1.00
   3.0000000000E-04   1.0000000000E+00
 
  2 0
s  1 1.00
   1.0000000000E-04   1.0000000000E+00
s  1 1.00
   3.0000000000E-04   1.0000000000E+00
s  1 1.00
   9.0000000000E-04   1.0000000000E+00
s  1 1.00
   2.7000000000E-03   1.0000000000E+00
s  1 1.00
   8.1000000000E-03   1.0000000000E+00
s  1 1.00
   2.4300000000E-02   1.0000000000E+00
s  1 1.00
   7.2900000000E-02   1.0000000000E+00
s  1 1.00
   2.1870000000E-01   1.0000000000E+00
s  1 1.00
   6.5610000000E-01   1.0000000000E+00
s  1 1.00
   1.9683000000E+00   1.0000000000E+00
p  1 1.00
   1.0000000000E-04   1.0000000000E+00
p  1 1.00
   3.0000000000E-04   1.0000000000E+00
p  1 1.00
   9.0000000000E-04   1.0000000000E+00
p  1 1.00
   2.7000000000E-03   1.0000000000E+00
d  1 1.00
   1.0000000000E-04   1.0000000000E+00
d  1 1.00
   3.0000000000E-04   1.0000000000E+00
 
 
[MO]
Ene=    -1.03243E-02
Spin= Alpha
Occup=   1.0000000000
   1       0.00491371
   2       0.00939862
   3      -0.01681531
   4      -0.07987444
   5      -0.21965953
   6      -0.26110394
   7      -0.13014512
   8       0.11336192
   9       0.00885972
  10      -0.00028803
  11       0.00056274
  12       0.00000000
  13       0.00000000
  14       0.00192872
  15       0.00000000
  16      -0.00000000
  17       0.02512637
  18       0.00000000
  19       0.00000000
  20      -0.03199165
  21      -0.00000000
  22       0.00000000
  23      -0.00117048
  24      -0.00043669
  25      -0.00043669
  26      -0.00000000
  27      -0.00000000
  28       0.00000000
  29      -0.00131480
  30      -0.00379380
  31      -0.00379380
  32       0.00000000
  33       0.00000000
  34      -0.00000000
  35       0.00491371
  36       0.00939862
  37      -0.01681531
  38      -0.07987444
  39      -0.21965953
  40      -0.26110394
  41      -0.13014512
  42       0.11336192
  43       0.00885972
  44      -0.00028803
  45      -0.00056274
  46       0.00000000
  47       0.00000000
  48      -0.00192872
  49      -0.00000000
  50       0.00000000
  51      -0.02512637
  52      -0.00000000
  53      -0.00000000
  54       0.03199165
  55       0.00000000
  56      -0.00000000
  57      -0.00117048
  58      -0.00043669
  59      -0.00043669
  60       0.00000000
  61       0.00000000
  62      -0.00000000
  63      -0.00131480
  64      -0.00379380
  65      -0.00379380
  66      -0.00000000
  67      -0.00000000
  68       0.00000000
Ene=     2.38912E-03
Spin= Alpha
Occup=   0.0000000000
   1      -0.00562982
   2      -0.00264178
   3      19.82809479
   4      -1.80940607
   5       0.36875751
   6       0.08334730
   7       0.05971686
   8      -0.04865985
   9      -0.00337678
  10       0.00005010
  11       0.10087654
  12       0.00000000
  13       0.00000000
  14       0.05925733
  15       0.00000000
  16       0.00000000
  17       2.48530290
  18      -0.00000000
  19      -0.00000000
  20      -0.52133531
  21       0.00000000
  22       0.00000000
  23       0.34660688
  24       0.41745221
  25       0.41745221
  26       0.00000000
  27       0.00000000
  28      -0.00000000
  29       0.73817376
  30       0.62365636
  31       0.62365636
  32       0.00000000
  33       0.00000000
  34       0.00000000
  35       0.00562982
  36       0.00264178
  37     -19.82809479
  38       1.80940607
  39      -0.36875751
  40      -0.08334730
  41      -0.05971686
  42       0.04865985
  43       0.00337678
  44      -0.00005010
  45       0.10087654
  46      -0.00000000
  47      -0.00000000
  48       0.05925733
  49      -0.00000000
  50      -0.00000000
  51       2.48530290
  52       0.00000000
  53       0.00000000
  54      -0.52133531
  55      -0.00000000
  56      -0.00000000
  57      -0.34660688
  58      -0.41745221
  59      -0.41745221
  60       0.00000000
  61       0.00000000
  62       0.00000000
  63      -0.73817376
  64      -0.62365636
  65      -0.62365636
  66       0.00000000
  67       0.00000000
  68      -0.00000000
Ene=     2.45258E-03
Spin= Alpha
Occup=   0.0000000000
   1       0.15933101
   2       0.32563269
   3      -1.17309695
   4       0.65864891
   5      -0.13162896
   6       0.12651412
   7       0.00224170
   8      -0.01454718
   9      -0.00324254
  10       0.00033601
  11       0.01684830
  12      -0.00000000
  13       0.00000000
  14       0.07051690
  15       0.00000000
  16      -0.00000000
  17      -0.13719896
  18      -0.00000000
  19       0.00000000
  20       0.00853479
  21       0.00000000
  22       0.00000000
  23      -0.01998018
  24      -0.02265882
  25      -0.02265882
  26       0.00000000
  27      -0.00000000
  28      -0.00000000
  29      -0.09655151
  30      -0.10232373
  31      -0.10232373
  32      -0.00000000
  33      -0.00000000
  34       0.00000000
  35       0.15933101
  36       0.32563269
  37      -1.17309695
  38       0.65864891
  39      -0.13162896
  40       0.12651412
  41       0.00224170
  42      -0.01454718
  43      -0.00324254
  44       0.00033601
  45      -0.01684830
  46       0.00000000
  47      -0.00000000
  48      -0.07051690
  49      -0.00000000
  50       0.00000000
  51       0.13719896
  52       0.00000000
  53      -0.00000000
  54      -0.00853479
  55      -0.00000000
  56      -0.00000000
  57      -0.01998018
  58      -0.02265881
  59      -0.02265881
  60      -0.00000000
  61       0.00000000
  62       0.00000000
  63      -0.09655151
  64      -0.10232373
  65      -0.10232373
  66       0.00000000
  67      -0.00000000
  68      -0.00000000
Ene=     3.52192E-03
Spin= Alpha
Occup=   0.0000000000
   1      -0.00000000
   2      -0.00000000
   3      -0.00000000
   4      -0.00000000
   5       0.00000000
   6      -0.00000000
   7      -0.00000000
   8       0.00000000
   9       0.00000000
  10      -0.00000000
  11       0.00000000
  12      -0.01546019
  13      -0.02264583
  14      -0.00000000
  15       0.06748977
  16       0.09885787
  17      -0.00000000
  18      -0.31793578
  19      -0.46570695
  20      -0.00000000
  21      -0.01346121
  22      -0.01971776
  23       0.00000000
  24       0.00000000
  25       0.00000000
  26      -0.09341704
  27      -0.13683570
  28       0.00000000
  29       0.00000000
  30       0.00000000
  31       0.00000000
  32       0.05195116
  33       0.07609718
  34       0.00000000
  35      -0.00000000
  36      -0.00000000
  37       0.00000000
  38       0.00000000
  39      -0.00000000
  40       0.00000000
  41       0.00000000
  42      -0.00000000
  43       0.00000000
  44      -0.00000000
  45       0.00000000
  46      -0.01546019
  47      -0.02264583
  48       0.00000000
  49       0.06748977
  50       0.09885787
  51      -0.00000000
  52      -0.31793578
  53      -0.46570695
  54      -0.00000000
  55      -0.01346121
  56      -0.01971776
  57      -0.00000000
  58      -0.00000000
  59      -0.00000000
  60       0.09341704
  61       0.13683570
  62      -0.00000000
  63      -0.00000000
  64      -0.00000000
  65      -0.00000000
  66      -0.05195116
  67      -0.07609718
  68       0.00000000
Ene=     3.52192E-03
Spin= Alpha
Occup=   0.0000000000
   1      -0.00000000
   2      -0.00000000
   3      -0.00000000
   4       0.00000000
   5      -0.00000000
   6       0.00000000
   7       0.00000000
   8      -0.00000000
   9      -0.00000000
  10      -0.00000000
  11       0.00000000
  12      -0.02264583
  13       0.01546019
  14       0.00000000
  15       0.09885787
  16      -0.06748977
  17      -0.00000000
  18      -0.46570695
  19       0.31793578
  20       0.00000000
  21      -0.01971776
  22       0.01346121
  23       0.00000000
  24       0.00000000
  25       0.00000000
  26      -0.13683570
  27       0.09341704
  28       0.00000000
  29       0.00000000
  30       0.00000000
  31       0.00000000
  32       0.07609718
  33      -0.05195116
  34      -0.00000000
  35       0.00000000
  36       0.00000000
  37       0.00000000
  38      -0.00000000
  39       0.00000000
  40      -0.00000000
  41      -0.00000000
  42       0.00000000
  43      -0.00000000
  44       0.00000000
  45       0.00000000
  46      -0.02264583
  47       0.01546019
  48       0.00000000
  49       0.09885787
  50      -0.06748977
  51      -0.00000000
  52      -0.46570695
  53       0.31793578
  54       0.00000000
  55      -0.01971776
  56       0.01346121
  57      -0.00000000
  58      -0.00000000
  59      -0.00000000
  60       0.13683570
  61      -0.09341704
  62      -0.00000000
  63      -0.00000000
  64      -0.00000000
  65      -0.00000000
  66      -0.07609718
  67       0.05195116
  68       0.00000000
Ene=     5.73162E-03
Spin= Alpha
Occup=   0.0000000000
   1       0.00853275
   2       0.00370050
   3     -33.61251767
   4       2.61636067
   5       0.24010390
   6       0.18329883
   7       0.06358246
   8      -0.06191090
   9      -0.00587294
  10       0.00028407
  11      -0.15230265
  12      -0.00000000
  13      -0.00000000
  14      -0.09718962
  15      -0.00000000
  16      -0.00000000
  17      -4.21134500
  18       0.00000000
  19       0.00000000
  20       0.12773348
  21       0.00000000
  22       0.00000000
  23      -0.52060214
  24      -0.63136388
  25      -0.63136388
  26      -0.00000000
  27      -0.00000000
  28       0.00000000
  29      -1.13173912
  30      -0.95185141
  31      -0.95185141
  32      -0.00000000
  33      -0.00000000
  34       0.00000000
  35      -0.00853275
  36      -0.00370050
  37      33.61251767
  38      -2.61636067
  39      -0.24010390
  40      -0.18329883
  41      -0.06358246
  42       0.06191090
  43       0.00587294
  44      -0.00028407
  45      -0.15230265
  46       0.00000000
  47       0.00000000
  48      -0.09718962
  49       0.00000000
  50       0.00000000
  51      -4.21134500
  52      -0.00000000
  53      -0.00000000
  54       0.12773348
  55      -0.00000000
  56      -0.00000000
  57       0.52060214
  58       0.63136388
  59       0.63136388
  60      -0.00000000
  61      -0.00000000
  62      -0.00000000
  63       1.13173912
  64       0.95185141
  65       0.95185141
  66      -0.00000000
  67      -0.00000000
  68       0.00000000
Ene=     6.75647E-03
Spin= Alpha
Occup=   0.0000000000
   1      -0.00000000
   2      -0.00000000
   3      -0.00000000
   4      -0.00000000
   5      -0.00000000
   6      -0.00000000
   7      -0.00000000
   8       0.00000000
   9       0.00000000
  10       0.00000000
  11       0.00000000
  12       0.00108467
  13      -0.00011953
  14       0.00000000
  15      -0.00287707
  16       0.00031704
  17      -0.00000000
  18       2.91351325
  19      -0.32105982
  20      -0.00000000
  21       0.66587146
  22      -0.07337690
  23       0.00000000
  24       0.00000000
  25       0.00000000
  26      -0.03401040
  27       0.00374784
  28      -0.00000000
  29       0.00000000
  30       0.00000000
  31       0.00000000
  32       0.10058578
  33      -0.01108423
  34       0.00000000
  35      -0.00000000
  36       0.00000000
  37       0.00000000
  38       0.00000000
  39       0.00000000
  40       0.00000000
  41       0.00000000
  42      -0.00000000
  43      -0.00000000
  44       0.00000000
  45       0.00000000
  46      -0.00108467
  47       0.00011953
  48       0.00000000
  49       0.00287707
  50      -0.00031704
  51      -0.00000000
  52      -2.91351325
  53       0.32105982
  54      -0.00000000
  55      -0.66587146
  56       0.07337690
  57      -0.00000000
  58      -0.00000000
  59      -0.00000000
  60      -0.03401040
  61       0.00374784
  62       0.00000000
  63      -0.00000000
  64      -0.00000000
  65      -0.00000000
  66       0.10058578
  67      -0.01108423
  68      -0.00000000
Ene=     6.75647E-03
Spin= Alpha
Occup=   0.0000000000
   1      -0.00000000
   2      -0.00000000
   3       0.00000000
   4       0.00000000
   5       0.00000000
   6       0.00000000
   7       0.00000000
   8      -0.00000000
   9      -0.00000000
  10       0.00000000
  11      -0.00000000
  12      -0.00011953
  13      -0.00108467
  14      -0.00000000
  15       0.00031704
  16       0.00287707
  17       0.00000000
  18      -0.32105982
  19      -2.91351325
  20       0.00000000
  21      -0.07337690
  22      -0.66587146
  23      -0.00000000
  24      -0.00000000
  25      -0.00000000
  26       0.00374784
  27       0.03401040
  28       0.00000000
  29      -0.00000000
  30      -0.00000000
  31      -0.00000000
  32      -0.01108423
  33      -0.10058578
  34      -0.00000000
  35      -0.00000000
  36      -0.00000000
  37      -0.00000000
  38      -0.00000000
  39      -0.00000000
  40      -0.00000000
  41      -0.00000000
  42       0.00000000
  43       0.00000000
  44       0.00000000
  45      -0.00000000
  46       0.00011953
  47       0.00108467
  48      -0.00000000
  49      -0.00031704
  50      -0.00287707
  51       0.00000000
  52       0.32105982
  53       2.91351325
  54       0.00000000
  55       0.07337690
  56       0.66587146
  57       0.00000000
  58       0.00000000
  59       0.00000000
  60       0.00374784
  61       0.03401040
  62      -0.00000000
  63       0.00000000
  64       0.00000000
  65       0.00000000
  66      -0.01108423
  67      -0.10058578
  68       0.00000000
Ene=     6.77474E-03
Spin= Alpha
Occup=   0.0000000000
   1      -0.24105487
   2      -0.48085327
   3       0.40734319
   4       0.56472032
   5      -0.04269348
   6       0.00834141
   7      -0.00688616
   8       0.00368108
   9      -0.00011545
  10       0.00004973
  11      -0.02782472
  12       0.00000000
  13       0.00000000
  14      -0.09888539
  15      -0.00000000
  16       0.00000000
  17      -2.41091216
  18      -0.00000000
  19       0.00000000
  20      -0.60257746
  21      -0.00000000
  22       0.00000000
  23       0.06445576
  24       0.01854596
  25       0.01854596
  26       0.00000000
  27      -0.00000000
  28      -0.00000000
  29       0.04066577
  30       0.19793920
  31       0.19793920
  32      -0.00000000
  33       0.00000000
  34       0.00000000
  35      -0.24105487
  36      -0.48085327
  37       0.40734319
  38       0.56472032
  39      -0.04269348
  40       0.00834141
  41      -0.00688616
  42       0.00368108
  43      -0.00011545
  44       0.00004973
  45       0.02782472
  46      -0.00000000
  47      -0.00000000
  48       0.09888539
  49       0.00000000
  50      -0.00000000
  51       2.41091217
  52       0.00000000
  53      -0.00000000
  54       0.60257746
  55       0.00000000
  56      -0.00000000
  57       0.06445576
  58       0.01854596
  59       0.01854596
  60       0.00000000
  61      -0.00000000
  62       0.00000000
  63       0.04066577
  64       0.19793920
  65       0.19793920
  66      -0.00000000
  67       0.00000000
  68      -0.00000000
Ene=     9.06693E-03
Spin= Alpha
Occup=   0.0000000000
   1      -0.00000000
   2      -0.00000000
   3      -0.00000000
   4      -0.00000000
   5       0.00000000
   6      -0.00000000
   7       0.00000000
   8       0.00000000
   9       0.00000000
  10      -0.00000000
  11       0.00000000
  12      -0.00862032
  13      -0.02528424
  14       0.00000000
  15       0.03807590
  16       0.11168031
  17      -0.00000000
  18      -0.20921617
  19      -0.61365139
  20      -0.00000000
  21       0.24679346
  22       0.72386924
  23       0.00000000
  24       0.00000000
  25       0.00000000
  26      -0.04761021
  27      -0.13964537
  28       0.00000000
  29       0.00000000
  30       0.00000000
  31       0.00000000
  32       0.02485509
  33       0.07290239
  34      -0.00000000
  35      -0.00000000
  36       0.00000000
  37       0.00000000
  38       0.00000000
  39      -0.00000000
  40       0.00000000
  41      -0.00000000
  42      -0.00000000
  43      -0.00000000
  44       0.00000000
  45       0.00000000
  46      -0.00862032
  47      -0.02528424
  48       0.00000000
  49       0.03807590
  50       0.11168031
  51      -0.00000000
  52      -0.20921617
  53      -0.61365139
  54      -0.00000000
  55       0.24679346
  56       0.72386924
  57      -0.00000000
  58      -0.00000000
  59      -0.00000000
  60       0.04761021
  61       0.13964537
  62      -0.00000000
  63      -0.00000000
  64      -0.00000000
  65      -0.00000000
  66      -0.02485509
  67      -0.07290239
  68       0.00000000
Ene=     9.06693E-03
Spin= Alpha
Occup=   0.0000000000
   1       0.00000000
   2      -0.00000000
   3      -0.00000000
   4      -0.00000000
   5       0.00000000
   6      -0.00000000
   7       0.00000000
   8       0.00000000
   9       0.00000000
  10      -0.00000000
  11       0.00000000
  12      -0.02528424
  13       0.00862032
  14       0.00000000
  15       0.11168031
  16      -0.03807590
  17      -0.00000000
  18      -0.61365139
  19       0.20921617
  20      -0.00000000
  21       0.72386924
  22      -0.24679346
  23       0.00000000
  24      -0.00000000
  25       0.00000000
  26      -0.13964537
  27       0.04761021
  28       0.00000000
  29       0.00000000
  30       0.00000000
  31       0.00000000
  32       0.07290239
  33      -0.02485509
  34      -0.00000000
  35       0.00000000
  36       0.00000000
  37       0.00000000
  38       0.00000000
  39      -0.00000000
  40       0.00000000
  41       0.00000000
  42      -0.00000000
  43      -0.00000000
  44       0.00000000
  45       0.00000000
  46      -0.02528424
  47       0.00862032
  48       0.00000000
  49       0.11168031
  50      -0.03807590
  51      -0.00000000
  52      -0.61365139
  53       0.20921617
  54      -0.00000000
  55       0.72386924
  56      -0.24679346
  57      -0.00000000
  58       0.00000000
  59      -0.00000000
  60       0.13964537
  61      -0.04761021
  62      -0.00000000
  63      -0.00000000
  64      -0.00000000
  65      -0.00000000
  66      -0.07290239
  67       0.02485509
  68       0.00000000
Ene=     1.04858E-02
Spin= Alpha
Occup=   0.0000000000
   1       0.00362239
   2       0.07890007
   3     177.93579595
   4      30.43313195
   5      -0.25548897
   6       0.07578333
   7       0.00011875
   8      -0.00774794
   9      -0.00165523
  10       0.00016435
  11      -0.09083453
  12       0.00000000
  13       0.00000001
  14      -0.30983700
  15       0.00000001
  16       0.00000000
  17      26.46873022
  18      -0.00000000
  19      -0.00000000
  20       8.78198326
  21       0.00000000
  22       0.00000000
  23      -0.67606602
  24      -0.06348031
  25      -0.06348031
  26       0.00000000
  27       0.00000000
  28      -0.00000000
  29      -0.74147541
  30      -1.67457762
  31      -1.67457762
  32       0.00000000
  33       0.00000000
  34      -0.00000000
  35      -0.00362240
  36      -0.07890007
  37    -177.93579595
  38     -30.43313195
  39       0.25548897
  40      -0.07578333
  41      -0.00011876
  42       0.00774794
  43       0.00165523
  44      -0.00016435
  45      -0.09083453
  46      -0.00000000
  47      -0.00000001
  48      -0.30983701
  49      -0.00000001
  50      -0.00000000
  51      26.46873022
  52       0.00000000
  53       0.00000000
  54       8.78198326
  55      -0.00000000
  56      -0.00000000
  57       0.67606602
  58       0.06348031
  59       0.06348031
  60       0.00000000
  61       0.00000000
  62       0.00000000
  63       0.74147541
  64       1.67457762
  65       1.67457762
  66       0.00000000
  67       0.00000000
  68       0.00000000
Ene=     1.05506E-02
Spin= Alpha
Occup=   0.0000000000
   1       0.13519365
   2      -0.12293152
   3       0.86814565
   4      -1.58093546
   5       0.90937738
   6      -0.04972598
   7       0.09602145
   8      -0.05836854
   9      -0.00053479
  10      -0.00044634
  11       0.01462186
  12       0.00000000
  13      -0.00000000
  14      -0.01371057
  15      -0.00000000
  16       0.00000000
  17      -0.57598772
  18       0.00000000
  19       0.00000000
  20       0.20359107
  21      -0.00000000
  22      -0.00000000
  23      -0.01112484
  24      -0.02686795
  25      -0.02686795
  26       0.00000000
  27       0.00000000
  28       0.00000000
  29      -0.05754583
  30      -0.01487992
  31      -0.01487992
  32      -0.00000000
  33      -0.00000000
  34      -0.00000000
  35       0.13519365
  36      -0.12293152
  37       0.86814511
  38      -1.58093556
  39       0.90937738
  40      -0.04972598
  41       0.09602145
  42      -0.05836854
  43      -0.00053479
  44      -0.00044634
  45      -0.01462186
  46      -0.00000000
  47       0.00000000
  48       0.01371057
  49       0.00000000
  50      -0.00000000
  51       0.57598780
  52      -0.00000000
  53      -0.00000000
  54      -0.20359104
  55       0.00000000
  56       0.00000000
  57      -0.01112484
  58      -0.02686795
  59      -0.02686795
  60      -0.00000000
  61      -0.00000000
  62      -0.00000000
  63      -0.05754583
  64      -0.01487992
  65      -0.01487992
  66      -0.00000000
  67       0.00000000
  68       0.00000000
Ene=     1.46341E-02
Spin= Alpha
Occup=   0.0000000000
   1       0.00000000
   2       0.00000000
   3       0.00000000
   4      -0.00000000
   5      -0.00000000
   6      -0.00000000
   7      -0.00000000
   8       0.00000000
   9       0.00000000
  10       0.00000000
  11      -0.00000000
  12       0.00029840
  13      -0.00087648
  14      -0.00000000
  15      -0.00023218
  16       0.00068198
  17       0.00000000
  18       1.31367375
  19      -3.85862592
  20      -0.00000000
  21      -0.82394852
  22       2.42016643
  23      -0.00000000
  24      -0.00000000
  25      -0.00000000
  26      -0.01236818
  27       0.03632878
  28       0.00000000
  29      -0.00000000
  30      -0.00000000
  31      -0.00000000
  32       0.03738295
  33      -0.10980413
  34      -0.00000000
  35       0.00000000
  36      -0.00000000
  37      -0.00000000
  38       0.00000000
  39       0.00000000
  40       0.00000000
  41       0.00000000
  42      -0.00000000
  43      -0.00000000
  44       0.00000000
  45      -0.00000000
  46      -0.00029840
  47       0.00087648
  48      -0.00000000
  49       0.00023218
  50      -0.00068198
  51       0.00000000
  52      -1.31367375
  53       3.85862592
  54      -0.00000000
  55       0.82394852
  56      -2.42016643
  57       0.00000000
  58       0.00000000
  59       0.00000000
  60      -0.01236818
  61       0.03632878
  62      -0.00000000
  63       0.00000000
  64       0.00000000
  65       0.00000000
  66       0.03738295
  67      -0.10980413
  68       0.00000000
Ene=     1.46341E-02
Spin= Alpha
Occup=   0.0000000000
   1       0.00000000
   2       0.00000000
   3       0.00000000
   4      -0.00000000
   5      -0.00000000
   6      -0.00000000
   7      -0.00000000
   8       0.00000000
   9       0.00000000
  10      -0.00000000
  11      -0.00000000
  12      -0.00087648
  13      -0.00029840
  14      -0.00000000
  15       0.00068198
  16       0.00023218
  17       0.00000000
  18      -3.85862592
  19      -1.31367375
  20      -0.00000000
  21       2.42016643
  22       0.82394852
  23      -0.00000000
  24      -0.00000000
  25      -0.00000000
  26       0.03632878
  27       0.01236818
  28       0.00000000
  29      -0.00000000
  30      -0.00000000
  31      -0.00000000
  32      -0.10980413
  33      -0.03738295
  34      -0.00000000
  35      -0.00000000
  36      -0.00000000
  37      -0.00000000
  38       0.00000000
  39       0.00000000
  40       0.00000000
  41       0.00000000
  42      -0.00000000
  43      -0.00000000
  44       0.00000000
  45      -0.00000000
  46       0.00087648
  47       0.00029840
  48      -0.00000000
  49      -0.00068198
  50      -0.00023218
  51       0.00000000
  52       3.85862592
  53       1.31367375
  54      -0.00000000
  55      -2.42016643
  56      -0.82394852
  57       0.00000000
  58       0.00000000
  59       0.00000000
  60       0.03632878
  61       0.01236818
  62      -0.00000000
  63       0.00000000
  64       0.00000000
  65       0.00000000
  66      -0.10980413
  67      -0.03738295
  68       0.00000000
Ene=     1.48944E-02
Spin= Alpha
Occup=   0.0000000000
   1       0.52781443
   2       0.91616139
   3      -1.36068878
   4      -0.00883107
   5       0.63431055
   6      -0.09605499
   7       0.04964924
   8      -0.02309246
   9       0.00135273
  10      -0.00039947
  11       0.05835897
  12      -0.00000000
  13      -0.00000000
  14       0.20030208
  15       0.00000000
  16      -0.00000000
  17       3.31593490
  18       0.00000000
  19       0.00000000
  20      -2.02675205
  21      -0.00000000
  22      -0.00000000
  23      -0.10665637
  24      -0.05943772
  25      -0.05943772
  26      -0.00000000
  27       0.00000000
  28       0.00000000
  29      -0.17561514
  30      -0.36335232
  31      -0.36335232
  32       0.00000000
  33      -0.00000000
  34      -0.00000000
  35       0.52781443
  36       0.91616139
  37      -1.36068878
  38      -0.00883107
  39       0.63431055
  40      -0.09605499
  41       0.04964924
  42      -0.02309246
  43       0.00135273
  44      -0.00039947
  45      -0.05835897
  46       0.00000000
  47       0.00000000
  48      -0.20030208
  49      -0.00000000
  50       0.00000000
  51      -3.31593490
  52      -0.00000000
  53      -0.00000000
  54       2.02675205
  55       0.00000000
  56       0.00000000
  57      -0.10665637
  58      -0.05943772
  59      -0.05943772
  60       0.00000000
  61      -0.00000000
  62      -0.00000000
  63      -0.17561514
  64      -0.36335232
  65      -0.36335232
  66      -0.00000000
  67       0.00000000
  68       0.00000000
Ene=     1.55974E-02
Spin= Alpha
Occup=   0.0000000000
   1       0.00748675
   2       0.06385120
   3     101.44296860
   4      -5.21682052
   5      -1.34366401
   6       0.00078335
   7      -0.12225590
   8       0.07870736
   9       0.00213048
  10       0.00040615
  11      -0.15188459
  12       0.00000000
  13       0.00000000
  14      -0.34942913
  15       0.00000000
  16       0.00000000
  17      16.12239847
  18       0.00000000
  19       0.00000000
  20      -2.37083983
  21      -0.00000000
  22      -0.00000000
  23      -0.76672317
  24      -0.39081782
  25      -0.39081782
  26       0.00000000
  27       0.00000000
  28      -0.00000000
  29      -1.32693742
  30      -1.87361945
  31      -1.87361945
  32       0.00000000
  33       0.00000000
  34      -0.00000000
  35      -0.00748675
  36      -0.06385120
  37    -101.44296860
  38       5.21682052
  39       1.34366401
  40      -0.00078335
  41       0.12225590
  42      -0.07870736
  43      -0.00213048
  44      -0.00040615
  45      -0.15188460
  46      -0.00000000
  47      -0.00000000
  48      -0.34942913
  49      -0.00000000
  50      -0.00000000
  51      16.12239847
  52      -0.00000000
  53      -0.00000000
  54      -2.37083983
  55       0.00000000
  56       0.00000000
  57       0.76672317
  58       0.39081782
  59       0.39081782
  60       0.00000000
  61       0.00000000
  62       0.00000000
  63       1.32693742
  64       1.87361945
  65       1.87361945
  66       0.00000000
  67       0.00000000
  68       0.00000000
Ene=     2.18819E-02
Spin= Alpha
Occup=   0.0000000000
   1       0.01942470
   2       0.14630343
   3     277.06917292
   4     -50.04135507
   5       1.78515723
   6      -0.11592192
   7       0.10369114
   8      -0.05546651
   9       0.00050978
  10      -0.00057130
  11      -0.39801847
  12       0.00000000
  13       0.00000001
  14      -0.65012101
  15       0.00000001
  16       0.00000001
  17      42.44077666
  18      -0.00000000
  19      -0.00000000
  20     -12.84685455
  21       0.00000000
  22      -0.00000000
  23      -1.96550212
  24      -1.21695543
  25      -1.21695543
  26       0.00000000
  27       0.00000000
  28      -0.00000000
  29      -3.03405918
  30      -4.14757131
  31      -4.14757131
  32       0.00000000
  33       0.00000000
  34      -0.00000000
  35      -0.01942470
  36      -0.14630343
  37    -277.06917292
  38      50.04135507
  39      -1.78515723
  40       0.11592192
  41      -0.10369114
  42       0.05546651
  43      -0.00050978
  44       0.00057130
  45      -0.39801848
  46      -0.00000000
  47      -0.00000001
  48      -0.65012102
  49      -0.00000001
  50      -0.00000001
  51      42.44077666
  52       0.00000000
  53       0.00000000
  54     -12.84685455
  55      -0.00000000
  56       0.00000000
  57       1.96550212
  58       1.21695543
  59       1.21695543
  60       0.00000000
  61       0.00000000
  62       0.00000000
  63       3.03405918
  64       4.14757131
  65       4.14757131
  66       0.00000000
  67       0.00000000
  68       0.00000000
Ene=     2.62446E-02
Spin= Alpha
Occup=   0.0000000000
   1      -3.04095795
   2      -3.04442048
   3       4.11780048
   4      -1.80503685
   5       0.34127274
   6       0.16675409
   7       0.00493928
   8      -0.02014585
   9      -0.00412599
  10       0.00039997
  11      -0.32971086
  12       0.00000000