 Molden2AIM, Version 3.1.0 (02/25/2015)           Time: Thu Oct 17 19:54:22 2024
GAUSSIAN             68 MOL ORBITALS     68 PRIMITIVES        2 NUCLEI
  Be   1    (CENTRE  1)   0.00000000  0.00000000  0.00000000  CHARGE =  4.0
  Be   2    (CENTRE  2)  31.80000000  0.00000000  0.00000000  CHARGE =  4.0
CENTRE ASSIGNMENTS    1  1  1  1  1  1  1  1  1  1  1  1  1  1  1  1  1  1  1  1
CENTRE ASSIGNMENTS    1  1  1  1  1  1  1  1  1  1  1  1  1  1  2  2  2  2  2  2
CENTRE ASSIGNMENTS    2  2  2  2  2  2  2  2  2  2  2  2  2  2  2  2  2  2  2  2
CENTRE ASSIGNMENTS    2  2  2  2  2  2  2  2
TYPE ASSIGNMENTS      1  1  1  1  1  1  1  1  1  1  2  3  4  2  3  4  2  3  4  2
TYPE ASSIGNMENTS      3  4  5  6  7  8  9 10  5  6  7  8  9 10  1  1  1  1  1  1
TYPE ASSIGNMENTS      1  1  1  1  2  3  4  2  3  4  2  3  4  2  3  4  5  6  7  8
TYPE ASSIGNMENTS      9 10  5  6  7  8  9 10
EXPONENTS  0.1000000D-03 0.3000000D-03 0.9000000D-03 0.2700000D-02 0.8100000D-02
EXPONENTS  0.2430000D-01 0.7290000D-01 0.2187000D+00 0.6561000D+00 0.1968300D+01
EXPONENTS  0.1000000D-03 0.1000000D-03 0.1000000D-03 0.3000000D-03 0.3000000D-03
EXPONENTS  0.3000000D-03 0.9000000D-03 0.9000000D-03 0.9000000D-03 0.2700000D-02
EXPONENTS  0.2700000D-02 0.2700000D-02 0.1000000D-03 0.1000000D-03 0.1000000D-03
EXPONENTS  0.1000000D-03 0.1000000D-03 0.1000000D-03 0.3000000D-03 0.3000000D-03
EXPONENTS  0.3000000D-03 0.3000000D-03 0.3000000D-03 0.3000000D-03 0.1000000D-03
EXPONENTS  0.3000000D-03 0.9000000D-03 0.2700000D-02 0.8100000D-02 0.2430000D-01
EXPONENTS  0.7290000D-01 0.2187000D+00 0.6561000D+00 0.1968300D+01 0.1000000D-03
EXPONENTS  0.1000000D-03 0.1000000D-03 0.3000000D-03 0.3000000D-03 0.3000000D-03
EXPONENTS  0.9000000D-03 0.9000000D-03 0.9000000D-03 0.2700000D-02 0.2700000D-02
EXPONENTS  0.2700000D-02 0.1000000D-03 0.1000000D-03 0.1000000D-03 0.1000000D-03
EXPONENTS  0.1000000D-03 0.1000000D-03 0.3000000D-03 0.3000000D-03 0.3000000D-03
EXPONENTS  0.3000000D-03 0.3000000D-03 0.3000000D-03
MO    1     MO 0.0        OCC NO =    1.0000000  ORB. ENERGY =   -0.003488
 -0.63457164D-04  0.12667652D-03 -0.16069473D-05  0.21337464D-02  0.48852156D-02
  0.79619114D-02  0.11579595D-01 -0.21260947D-01 -0.32719383D-02  0.93989691D-04
  0.48177099D-05 -0.00000000D+00  0.00000000D+00 -0.64775548D-05  0.00000000D+00
 -0.00000000D+00  0.13022855D-04 -0.00000000D+00  0.00000000D+00 -0.21477139D-04
  0.00000000D+00 -0.00000000D+00  0.15201642D-07 -0.45771467D-09 -0.45771467D-09
 -0.00000000D+00  0.00000000D+00 -0.00000000D+00 -0.65433735D-07 -0.12678992D-07
 -0.12678992D-07  0.00000000D+00 -0.00000000D+00  0.00000000D+00 -0.63457164D-04
  0.12667652D-03 -0.16069473D-05  0.21337464D-02  0.48852156D-02  0.79619114D-02
  0.11579595D-01 -0.21260947D-01 -0.32719383D-02  0.93989691D-04 -0.48177099D-05
  0.00000000D+00 -0.00000000D+00  0.64775548D-05 -0.00000000D+00  0.00000000D+00
 -0.13022855D-04 -0.00000000D+00  0.00000000D+00  0.21477139D-04  0.00000000D+00
  0.00000000D+00  0.15201642D-07 -0.45771467D-09 -0.45771467D-09 -0.00000000D+00
  0.00000000D+00 -0.00000000D+00 -0.65433735D-07 -0.12678992D-07 -0.12678992D-07
  0.00000000D+00 -0.00000000D+00  0.00000000D+00
MO    2     MO 0.0        OCC NO =    0.0000000  ORB. ENERGY =   -0.002784
  0.18116617D-05  0.14673591D-04  0.26890404D-03  0.27829258D-02  0.49503693D-02
  0.89085889D-02  0.12004333D-01 -0.22408186D-01 -0.36111709D-02  0.15132388D-03
 -0.19726291D-06  0.00000000D+00 -0.00000000D+00 -0.13149204D-05 -0.00000000D+00
  0.00000000D+00  0.21783846D-04  0.00000000D+00  0.00000000D+00 -0.20856130D-04
 -0.00000000D+00 -0.00000000D+00 -0.36462819D-08 -0.19368034D-08 -0.19368034D-08
  0.00000000D+00 -0.00000000D+00 -0.00000000D+00 -0.42096539D-07 -0.54166103D-07
 -0.54166103D-07 -0.00000000D+00  0.00000000D+00  0.00000000D+00 -0.18116617D-05
 -0.14673591D-04 -0.26890404D-03 -0.27829258D-02 -0.49503693D-02 -0.89085889D-02
 -0.12004333D-01  0.22408186D-01  0.36111709D-02 -0.15132388D-03 -0.19726291D-06
 -0.00000000D+00  0.00000000D+00 -0.13149204D-05  0.00000000D+00 -0.00000000D+00
  0.21783846D-04 -0.00000000D+00  0.00000000D+00 -0.20856130D-04  0.00000000D+00
 -0.00000000D+00  0.36462819D-08  0.19368034D-08  0.19368034D-08  0.00000000D+00
 -0.00000000D+00 -0.00000000D+00  0.42096539D-07  0.54166103D-07  0.54166103D-07
 -0.00000000D+00  0.00000000D+00  0.00000000D+00
MO    3     MO 0.0        OCC NO =    0.0000000  ORB. ENERGY =    0.004097
  0.54623332D-03 -0.12587176D-04 -0.40673783D-02  0.69306457D-02  0.46044303D-03
  0.49716143D-02  0.35024240D-02 -0.77910944D-02 -0.17680549D-02  0.21563386D-03
 -0.27208863D-04 -0.00000000D+00  0.00000000D+00  0.33770691D-04 -0.00000000D+00
 -0.00000000D+00 -0.11119991D-03 -0.00000000D+00  0.00000000D+00  0.45138089D-04
 -0.00000000D+00 -0.00000000D+00 -0.91343382D-07 -0.37519616D-08 -0.37519616D-08
 -0.00000000D+00  0.00000000D+00  0.00000000D+00  0.15747008D-06 -0.92020816D-07
 -0.92020816D-07 -0.00000000D+00  0.00000000D+00  0.00000000D+00  0.54623332D-03
 -0.12587176D-04 -0.40673783D-02  0.69306457D-02  0.46044303D-03  0.49716143D-02
  0.35024240D-02 -0.77910944D-02 -0.17680549D-02  0.21563386D-03  0.27208863D-04
  0.00000000D+00 -0.00000000D+00 -0.33770691D-04  0.00000000D+00  0.00000000D+00
  0.11119991D-03  0.00000000D+00 -0.00000000D+00 -0.45138089D-04 -0.00000000D+00
  0.00000000D+00 -0.91343382D-07 -0.37519616D-08 -0.37519616D-08 -0.00000000D+00
  0.00000000D+00 -0.00000000D+00  0.15747008D-06 -0.92020816D-07 -0.92020816D-07
 -0.00000000D+00 -0.00000000D+00 -0.00000000D+00
MO    4     MO 0.0        OCC NO =    0.0000000  ORB. ENERGY =    0.005074
  0.00000000D+00  0.00000000D+00  0.00000000D+00 -0.00000000D+00 -0.00000000D+00
  0.00000000D+00 -0.00000000D+00  0.00000000D+00 -0.00000000D+00  0.00000000D+00
 -0.00000000D+00 -0.33587471D-06 -0.19151793D-06 -0.00000000D+00  0.44939847D-05
  0.25624980D-05  0.00000000D+00 -0.65967943D-04 -0.37615333D-04  0.00000000D+00
 -0.25749482D-03 -0.14682516D-03 -0.00000000D+00 -0.00000000D+00  0.00000000D+00
 -0.13522246D-08 -0.77104754D-09  0.00000000D+00 -0.00000000D+00 -0.00000000D+00
 -0.00000000D+00 -0.37782701D-07 -0.21543925D-07 -0.00000000D+00  0.00000000D+00
  0.00000000D+00 -0.00000000D+00  0.00000000D+00 -0.00000000D+00 -0.00000000D+00
  0.00000000D+00  0.00000000D+00 -0.00000000D+00  0.00000000D+00  0.00000000D+00
 -0.33587471D-06 -0.19151793D-06  0.00000000D+00  0.44939847D-05  0.25624980D-05
  0.00000000D+00 -0.65967943D-04 -0.37615333D-04  0.00000000D+00 -0.25749482D-03
 -0.14682516D-03 -0.00000000D+00  0.00000000D+00 -0.00000000D+00  0.13522246D-08
  0.77104754D-09 -0.00000000D+00 -0.00000000D+00  0.00000000D+00  0.00000000D+00
  0.37782701D-07  0.21543925D-07  0.00000000D+00
MO    5     MO 0.0        OCC NO =    0.0000000  ORB. ENERGY =    0.005074
 -0.00000000D+00  0.00000000D+00  0.00000000D+00 -0.00000000D+00  0.00000000D+00
 -0.00000000D+00 -0.00000000D+00  0.00000000D+00 -0.00000000D+00  0.00000000D+00
  0.00000000D+00 -0.19151793D-06  0.33587471D-06 -0.00000000D+00  0.25624980D-05
 -0.44939847D-05  0.00000000D+00 -0.37615333D-04  0.65967943D-04  0.00000000D+00
 -0.14682516D-03  0.25749482D-03  0.00000000D+00 -0.00000000D+00 -0.00000000D+00
 -0.77104754D-09  0.13522246D-08  0.00000000D+00 -0.00000000D+00 -0.00000000D+00
 -0.00000000D+00 -0.21543925D-07  0.37782701D-07 -0.00000000D+00 -0.00000000D+00
  0.00000000D+00 -0.00000000D+00  0.00000000D+00  0.00000000D+00 -0.00000000D+00
  0.00000000D+00 -0.00000000D+00  0.00000000D+00 -0.00000000D+00 -0.00000000D+00
 -0.19151793D-06  0.33587471D-06  0.00000000D+00  0.25624980D-05 -0.44939847D-05
  0.00000000D+00 -0.37615333D-04  0.65967943D-04  0.00000000D+00 -0.14682516D-03
  0.25749482D-03  0.00000000D+00  0.00000000D+00  0.00000000D+00  0.77104754D-09
 -0.13522246D-08 -0.00000000D+00 -0.00000000D+00 -0.00000000D+00 -0.00000000D+00
  0.21543925D-07 -0.37782701D-07  0.00000000D+00
MO    6     MO 0.0        OCC NO =    0.0000000  ORB. ENERGY =    0.007622
  0.00000000D+00  0.00000000D+00 -0.00000000D+00 -0.00000000D+00  0.00000000D+00
 -0.00000000D+00  0.00000000D+00 -0.00000000D+00  0.00000000D+00 -0.00000000D+00
  0.00000000D+00 -0.81278367D-05 -0.22868549D-04  0.00000000D+00  0.61871780D-05
  0.17408296D-04  0.00000000D+00 -0.17704878D-04 -0.49814590D-04 -0.00000000D+00
 -0.20977660D-03 -0.59022919D-03  0.00000000D+00  0.00000000D+00  0.00000000D+00
 -0.25563608D-07 -0.71925979D-07 -0.00000000D+00  0.00000000D+00 -0.00000000D+00
 -0.00000000D+00  0.40595030D-07  0.11421851D-06 -0.00000000D+00 -0.00000000D+00
 -0.00000000D+00 -0.00000000D+00 -0.00000000D+00  0.00000000D+00  0.00000000D+00
  0.00000000D+00 -0.00000000D+00 -0.00000000D+00  0.00000000D+00  0.00000000D+00
  0.81278367D-05  0.22868549D-04  0.00000000D+00 -0.61871780D-05 -0.17408296D-04
 -0.00000000D+00  0.17704878D-04  0.49814590D-04  0.00000000D+00  0.20977660D-03
  0.59022919D-03  0.00000000D+00 -0.00000000D+00 -0.00000000D+00 -0.25563608D-07
 -0.71925979D-07 -0.00000000D+00 -0.00000000D+00 -0.00000000D+00 -0.00000000D+00
  0.40595030D-07  0.11421851D-06  0.00000000D+00
MO    7     MO 0.0        OCC NO =    0.0000000  ORB. ENERGY =    0.007622
 -0.00000000D+00  0.00000000D+00  0.00000000D+00 -0.00000000D+00 -0.00000000D+00
  0.00000000D+00 -0.00000000D+00  0.00000000D+00 -0.00000000D+00  0.00000000D+00
  0.00000000D+00  0.22868549D-04 -0.81278367D-05  0.00000000D+00 -0.17408296D-04
  0.61871780D-05  0.00000000D+00  0.49814590D-04 -0.17704878D-04 -0.00000000D+00
  0.59022919D-03 -0.20977660D-03  0.00000000D+00  0.00000000D+00 -0.00000000D+00
  0.71925979D-07 -0.25563608D-07  0.00000000D+00  0.00000000D+00 -0.00000000D+00
 -0.00000000D+00 -0.11421851D-06  0.40595030D-07  0.00000000D+00  0.00000000D+00
 -0.00000000D+00 -0.00000000D+00  0.00000000D+00  0.00000000D+00  0.00000000D+00
  0.00000000D+00 -0.00000000D+00  0.00000000D+00 -0.00000000D+00 -0.00000000D+00
 -0.22868549D-04  0.81278367D-05  0.00000000D+00  0.17408296D-04 -0.61871780D-05
  0.00000000D+00 -0.49814590D-04  0.17704878D-04  0.00000000D+00 -0.59022919D-03
  0.20977660D-03  0.00000000D+00 -0.00000000D+00 -0.00000000D+00  0.71925979D-07
 -0.25563608D-07 -0.00000000D+00 -0.00000000D+00 -0.00000000D+00 -0.00000000D+00
 -0.11421851D-06  0.40595030D-07 -0.00000000D+00
MO    8     MO 0.0        OCC NO =    0.0000000  ORB. ENERGY =    0.008264
  0.15053152D-04 -0.13895822D-04 -0.13299682D-01 -0.93075121D-03  0.10224678D-01
  0.10645546D-02  0.80738101D-02 -0.12308799D-01 -0.96468689D-03 -0.25827031D-03
 -0.17283086D-05 -0.00000000D+00 -0.00000000D+00  0.16692024D-05  0.00000000D+00
  0.00000000D+00 -0.28636311D-03 -0.00000000D+00 -0.00000000D+00 -0.13886643D-03
  0.00000000D+00 -0.00000000D+00 -0.16206003D-07 -0.31167187D-07 -0.31167187D-07
 -0.00000000D+00 -0.00000000D+00 -0.00000000D+00 -0.29762568D-06 -0.12068959D-06
 -0.12068959D-06  0.00000000D+00  0.00000000D+00  0.00000000D+00 -0.15053152D-04
  0.13895822D-04  0.13299682D-01  0.93075121D-03 -0.10224678D-01 -0.10645546D-02
 -0.80738101D-02  0.12308799D-01  0.96468689D-03  0.25827031D-03 -0.17283086D-05
  0.00000000D+00  0.00000000D+00  0.16692024D-05 -0.00000000D+00 -0.00000000D+00
 -0.28636311D-03  0.00000000D+00  0.00000000D+00 -0.13886643D-03 -0.00000000D+00
  0.00000000D+00  0.16206003D-07  0.31167187D-07  0.31167187D-07 -0.00000000D+00
 -0.00000000D+00 -0.00000000D+00  0.29762568D-06  0.12068959D-06  0.12068959D-06
  0.00000000D+00 -0.00000000D+00  0.00000000D+00
MO    9     MO 0.0        OCC NO =    0.0000000  ORB. ENERGY =    0.008670
  0.13453100D-03 -0.27270984D-03 -0.72645074D-03  0.15467506D-02 -0.23158086D-02
  0.15321212D-02 -0.14053918D-02  0.12274556D-02 -0.33196393D-03  0.16482542D-03
 -0.12050857D-04 -0.00000000D+00  0.00000000D+00  0.14279303D-04  0.00000000D+00
 -0.00000000D+00 -0.47893910D-04 -0.00000000D+00  0.00000000D+00  0.59231983D-03
  0.00000000D+00 -0.00000000D+00 -0.37085302D-07  0.20045825D-08  0.20045825D-08
 -0.00000000D+00  0.00000000D+00 -0.00000000D+00  0.15359158D-06  0.43837432D-07
  0.43837432D-07  0.00000000D+00 -0.00000000D+00  0.00000000D+00  0.13453100D-03
 -0.27270984D-03 -0.72645074D-03  0.15467506D-02 -0.23158086D-02  0.15321212D-02
 -0.14053918D-02  0.12274556D-02 -0.33196393D-03  0.16482542D-03  0.12050857D-04
  0.00000000D+00 -0.00000000D+00 -0.14279303D-04 -0.00000000D+00  0.00000000D+00
  0.47893910D-04  0.00000000D+00 -0.00000000D+00 -0.59231983D-03 -0.00000000D+00
  0.00000000D+00 -0.37085302D-07  0.20045825D-08  0.20045825D-08 -0.00000000D+00
  0.00000000D+00 -0.00000000D+00  0.15359158D-06  0.43837432D-07  0.43837432D-07
  0.00000000D+00 -0.00000000D+00  0.00000000D+00
MO   10     MO 0.0        OCC NO =    0.0000000  ORB. ENERGY =    0.012070
 -0.00000000D+00  0.00000000D+00  0.00000000D+00 -0.00000000D+00  0.00000000D+00
 -0.00000000D+00  0.00000000D+00 -0.00000000D+00 -0.00000000D+00 -0.00000000D+00
  0.00000000D+00  0.49657739D-06 -0.71412048D-06 -0.00000000D+00 -0.68059127D-05
  0.97874799D-05  0.00000000D+00  0.11887049D-03 -0.17094585D-03 -0.00000000D+00
 -0.46452642D-03  0.66802841D-03  0.00000000D+00  0.00000000D+00  0.00000000D+00
  0.15951574D-08 -0.22939737D-08  0.00000000D+00  0.00000000D+00 -0.00000000D+00
 -0.00000000D+00  0.57596973D-07 -0.82829351D-07 -0.00000000D+00 -0.00000000D+00
  0.00000000D+00  0.00000000D+00 -0.00000000D+00  0.00000000D+00 -0.00000000D+00
  0.00000000D+00 -0.00000000D+00 -0.00000000D+00  0.00000000D+00 -0.00000000D+00
  0.49657739D-06 -0.71412048D-06  0.00000000D+00 -0.68059127D-05  0.97874799D-05
 -0.00000000D+00  0.11887049D-03 -0.17094585D-03  0.00000000D+00 -0.46452642D-03
  0.66802841D-03  0.00000000D+00 -0.00000000D+00 -0.00000000D+00 -0.15951574D-08
  0.22939737D-08 -0.00000000D+00 -0.00000000D+00 -0.00000000D+00 -0.00000000D+00
 -0.57596973D-07  0.82829351D-07  0.00000000D+00
MO   11     MO 0.0        OCC NO =    0.0000000  ORB. ENERGY =    0.012070
 -0.00000000D+00 -0.00000000D+00 -0.00000000D+00 -0.00000000D+00  0.00000000D+00
 -0.00000000D+00  0.00000000D+00 -0.00000000D+00  0.00000000D+00 -0.00000000D+00
  0.00000000D+00 -0.71412048D-06 -0.49657739D-06 -0.00000000D+00  0.97874799D-05
  0.68059127D-05 -0.00000000D+00 -0.17094585D-03 -0.11887049D-03 -0.00000000D+00
  0.66802841D-03  0.46452642D-03  0.00000000D+00  0.00000000D+00  0.00000000D+00
 -0.22939737D-08 -0.15951574D-08  0.00000000D+00  0.00000000D+00 -0.00000000D+00
 -0.00000000D+00 -0.82829351D-07 -0.57596973D-07 -0.00000000D+00 -0.00000000D+00
 -0.00000000D+00  0.00000000D+00 -0.00000000D+00  0.00000000D+00  0.00000000D+00
  0.00000000D+00 -0.00000000D+00  0.00000000D+00 -0.00000000D+00 -0.00000000D+00
 -0.71412048D-06 -0.49657739D-06 -0.00000000D+00  0.97874799D-05  0.68059127D-05
 -0.00000000D+00 -0.17094585D-03 -0.11887049D-03 -0.00000000D+00  0.66802841D-03
  0.46452642D-03  0.00000000D+00 -0.00000000D+00 -0.00000000D+00  0.22939737D-08
  0.15951574D-08 -0.00000000D+00 -0.00000000D+00 -0.00000000D+00 -0.00000000D+00
  0.82829351D-07  0.57596973D-07  0.00000000D+00
MO   12     MO 0.0        OCC NO =    0.0000000  ORB. ENERGY =    0.012219
 -0.31299735D-03  0.69035487D-03  0.99525275D-03 -0.14307084D-01  0.20896319D-01
 -0.13777211D-02  0.12747876D-01 -0.17793115D-01 -0.65842050D-03 -0.61610858D-03
  0.32156402D-04  0.00000000D+00 -0.00000000D+00 -0.24687018D-04 -0.00000000D+00
  0.00000000D+00  0.12486860D-03  0.00000000D+00 -0.00000000D+00 -0.80370792D-04
  0.00000000D+00 -0.00000000D+00  0.96803411D-07 -0.66584045D-08 -0.66584045D-08
  0.00000000D+00 -0.00000000D+00 -0.00000000D+00 -0.31346315D-06 -0.16187666D-06
 -0.16187666D-06 -0.00000000D+00  0.00000000D+00  0.00000000D+00 -0.31299735D-03
  0.69035487D-03  0.99525275D-03 -0.14307084D-01  0.20896319D-01 -0.13777211D-02
  0.12747876D-01 -0.17793115D-01 -0.65842050D-03 -0.61610858D-03 -0.32156402D-04
 -0.00000000D+00  0.00000000D+00  0.24687018D-04  0.00000000D+00 -0.00000000D+00
 -0.12486860D-03 -0.00000000D+00  0.00000000D+00  0.80370792D-04  0.00000000D+00
 -0.00000000D+00  0.96803411D-07 -0.66584045D-08 -0.66584045D-08  0.00000000D+00
 -0.00000000D+00 -0.00000000D+00 -0.31346315D-06 -0.16187666D-06 -0.16187666D-06
 -0.00000000D+00  0.00000000D+00  0.00000000D+00
MO   13     MO 0.0        OCC NO =    0.0000000  ORB. ENERGY =    0.012405
  0.12215786D-04 -0.36798716D-05 -0.10074422D-01  0.94296695D-03 -0.40362985D-03
 -0.33505075D-02 -0.12205316D-02  0.35269338D-02  0.10561350D-02 -0.17768742D-03
 -0.13950642D-05 -0.00000000D+00  0.00000000D+00  0.59950666D-06  0.00000000D+00
 -0.00000000D+00 -0.20945627D-03  0.00000000D+00  0.00000000D+00 -0.11109332D-02
 -0.00000000D+00 -0.00000000D+00 -0.14331422D-07 -0.24323704D-07 -0.24323704D-07
 -0.00000000D+00  0.00000000D+00  0.00000000D+00 -0.24167474D-06 -0.11952741D-06
 -0.11952741D-06  0.00000000D+00 -0.00000000D+00 -0.00000000D+00 -0.12215786D-04
  0.36798716D-05  0.10074422D-01 -0.94296695D-03  0.40362985D-03  0.33505075D-02
  0.12205316D-02 -0.35269338D-02 -0.10561350D-02  0.17768742D-03 -0.13950642D-05
  0.00000000D+00 -0.00000000D+00  0.59950666D-06 -0.00000000D+00  0.00000000D+00
 -0.20945627D-03  0.00000000D+00 -0.00000000D+00 -0.11109332D-02 -0.00000000D+00
  0.00000000D+00  0.14331422D-07  0.24323704D-07  0.24323704D-07 -0.00000000D+00
  0.00000000D+00  0.00000000D+00  0.24167474D-06  0.11952741D-06  0.11952741D-06
  0.00000000D+00 -0.00000000D+00 -0.00000000D+00
MO   14     MO 0.0        OCC NO =    0.0000000  ORB. ENERGY =    0.017473
 -0.71140264D-05  0.41067543D-04  0.19317818D-01 -0.26234145D-01  0.26941040D-01
 -0.50815773D-02  0.12086850D-01 -0.15003604D-01  0.31223096D-03 -0.80291546D-03
  0.84639619D-06  0.00000000D+00 -0.00000000D+00 -0.20224838D-05 -0.00000000D+00
  0.00000000D+00  0.40497903D-03  0.00000000D+00 -0.00000000D+00 -0.47334961D-03
 -0.00000000D+00  0.00000000D+00  0.23325491D-08  0.18821634D-07  0.18821634D-07
  0.00000000D+00 -0.00000000D+00  0.00000000D+00  0.17202218D-06 -0.13643862D-07
 -0.13643862D-07 -0.00000000D+00  0.00000000D+00 -0.00000000D+00  0.71140264D-05
 -0.41067543D-04 -0.19317818D-01  0.26234145D-01 -0.26941040D-01  0.50815773D-02
 -0.12086850D-01  0.15003604D-01 -0.31223096D-03  0.80291546D-03  0.84639619D-06
 -0.00000000D+00  0.00000000D+00 -0.20224838D-05  0.00000000D+00 -0.00000000D+00
  0.40497903D-03 -0.00000000D+00  0.00000000D+00 -0.47334961D-03  0.00000000D+00
 -0.00000000D+00 -0.23325491D-08 -0.18821634D-07 -0.18821634D-07  0.00000000D+00
 -0.00000000D+00 -0.00000000D+00 -0.17202218D-06  0.13643862D-07  0.13643862D-07
 -0.00000000D+00  0.00000000D+00  0.00000000D+00
MO   15     MO 0.0        OCC NO =    0.0000000  ORB. ENERGY =    0.017966
  0.00000000D+00  0.00000000D+00  0.00000000D+00 -0.00000000D+00  0.00000000D+00
 -0.00000000D+00  0.00000000D+00 -0.00000000D+00 -0.00000000D+00  0.00000000D+00
  0.00000000D+00 -0.13784141D-03 -0.86985541D-04  0.00000000D+00  0.11708600D-03
  0.73887728D-04  0.00000000D+00 -0.35833758D-03 -0.22613079D-03 -0.00000000D+00
  0.67444340D-03  0.42561102D-03  0.00000000D+00  0.00000000D+00  0.00000000D+00
 -0.43487225D-06 -0.27442840D-06 -0.00000000D+00  0.00000000D+00  0.00000000D+00
  0.00000000D+00  0.82148384D-06  0.51840165D-06  0.00000000D+00 -0.00000000D+00
 -0.00000000D+00 -0.00000000D+00  0.00000000D+00 -0.00000000D+00  0.00000000D+00
 -0.00000000D+00  0.00000000D+00 -0.00000000D+00  0.00000000D+00  0.00000000D+00
  0.13784141D-03  0.86985541D-04  0.00000000D+00 -0.11708600D-03 -0.73887728D-04
 -0.00000000D+00  0.35833758D-03  0.22613079D-03 -0.00000000D+00 -0.67444340D-03
 -0.42561102D-03 -0.00000000D+00 -0.00000000D+00 -0.00000000D+00 -0.43487225D-06
 -0.27442840D-06  0.00000000D+00 -0.00000000D+00 -0.00000000D+00 -0.00000000D+00
  0.82148384D-06  0.51840165D-06 -0.00000000D+00
MO   16     MO 0.0        OCC NO =    0.0000000  ORB. ENERGY =    0.017966
 -0.00000000D+00  0.00000000D+00 -0.00000000D+00  0.00000000D+00 -0.00000000D+00
  0.00000000D+00 -0.00000000D+00  0.00000000D+00 -0.00000000D+00  0.00000000D+00
  0.00000000D+00  0.86985541D-04 -0.13784141D-03  0.00000000D+00 -0.73887728D-04
  0.11708600D-03  0.00000000D+00  0.22613079D-03 -0.35833758D-03 -0.00000000D+00
 -0.42561102D-03  0.67444340D-03  0.00000000D+00 -0.00000000D+00 -0.00000000D+00
  0.27442840D-06 -0.43487225D-06  0.00000000D+00  0.00000000D+00 -0.00000000D+00
 -0.00000000D+00 -0.51840165D-06  0.82148384D-06  0.00000000D+00 -0.00000000D+00
 -0.00000000D+00  0.00000000D+00  0.00000000D+00 -0.00000000D+00 -0.00000000D+00
 -0.00000000D+00  0.00000000D+00  0.00000000D+00 -0.00000000D+00 -0.00000000D+00
 -0.86985541D-04  0.13784141D-03  0.00000000D+00  0.73887728D-04 -0.11708600D-03
 -0.00000000D+00 -0.22613079D-03  0.35833758D-03  0.00000000D+00  0.42561102D-03
 -0.67444340D-03  0.00000000D+00 -0.00000000D+00 -0.00000000D+00  0.27442840D-06
 -0.43487225D-06 -0.00000000D+00 -0.00000000D+00 -0.00000000D+00 -0.00000000D+00
 -0.51840165D-06  0.82148384D-06 -0.00000000D+00
MO   17     MO 0.0        OCC NO =    0.0000000  ORB. ENERGY =    0.021400
 -0.13552296D-02  0.29248031D-02 -0.65739156D-02  0.10120742D-01 -0.91005079D-02
 -0.90684269D-03 -0.38654970D-02  0.60893127D-02  0.60229219D-03  0.92213172D-04
  0.10313613D-03  0.00000000D+00 -0.00000000D+00 -0.11231058D-03 -0.00000000D+00
  0.00000000D+00  0.29989516D-03 -0.00000000D+00  0.00000000D+00 -0.55814493D-03
  0.00000000D+00 -0.00000000D+00  0.32533923D-06 -0.94553425D-08 -0.94553425D-08
  0.00000000D+00 -0.00000000D+00 -0.00000000D+00 -0.12024780D-05 -0.33704418D-06
 -0.33704418D-06 -0.00000000D+00  0.00000000D+00  0.00000000D+00 -0.13552296D-02
  0.29248031D-02 -0.65739156D-02  0.10120742D-01 -0.91005079D-02 -0.90684269D-03
 -0.38654970D-02  0.60893127D-02  0.60229219D-03  0.92213172D-04 -0.10313613D-03
 -0.00000000D+00  0.00000000D+00  0.11231058D-03  0.00000000D+00 -0.00000000D+00
 -0.29989516D-03  0.00000000D+00 -0.00000000D+00  0.55814493D-03 -0.00000000D+00
  0.00000000D+00  0.32533923D-06 -0.94553425D-08 -0.94553425D-08  0.00000000D+00
 -0.00000000D+00  0.00000000D+00 -0.12024780D-05 -0.33704418D-06 -0.33704418D-06
 -0.00000000D+00  0.00000000D+00 -0.00000000D+00
MO   18     MO 0.0        OCC NO =    0.0000000  ORB. ENERGY =    0.024556
  0.51122748D-04  0.51128473D-03  0.19621698D-01 -0.50891351D-02  0.38748016D-02
 -0.27475316D-02  0.11712866D-02 -0.34377389D-03  0.60906728D-03 -0.21165446D-03
 -0.55277540D-05  0.00000000D+00  0.00000000D+00 -0.44548402D-04 -0.00000000D+00
 -0.00000000D+00  0.10797721D-02  0.00000000D+00  0.00000000D+00 -0.98103680D-03
  0.00000000D+00  0.00000000D+00 -0.10989462D-06 -0.53153417D-07 -0.53153417D-07
  0.00000000D+00  0.00000000D+00  0.00000000D+00 -0.12436191D-05 -0.16271226D-05
 -0.16271226D-05 -0.00000000D+00 -0.00000000D+00 -0.00000000D+00 -0.51122748D-04
 -0.51128473D-03 -0.19621698D-01  0.50891351D-02 -0.38748016D-02  0.27475316D-02
 -0.11712866D-02  0.34377389D-03 -0.60906728D-03  0.21165446D-03 -0.55277540D-05
 -0.00000000D+00 -0.00000000D+00 -0.44548402D-04  0.00000000D+00  0.00000000D+00
  0.10797721D-02 -0.00000000D+00 -0.00000000D+00 -0.98103680D-03 -0.00000000D+00
 -0.00000000D+00  0.10989462D-06  0.53153417D-07  0.53153417D-07  0.00000000D+00
  0.00000000D+00 -0.00000000D+00  0.12436191D-05  0.16271226D-05  0.16271226D-05
 -0.00000000D+00 -0.00000000D+00  0.00000000D+00
MO   19     MO 0.0        OCC NO =    0.0000000  ORB. ENERGY =    0.028681
  0.35668484D-02  0.33578952D-02 -0.17608046D-01  0.17953812D-01 -0.83391017D-02
 -0.60511289D-02 -0.18727351D-02  0.59129493D-02  0.19246510D-02 -0.33813075D-03
 -0.69521317D-04 -0.00000000D+00  0.00000000D+00  0.16021514D-03  0.00000000D+00
 -0.00000000D+00 -0.38496719D-04 -0.00000000D+00  0.00000000D+00  0.77409559D-04
  0.00000000D+00 -0.00000000D+00 -0.31282031D-06 -0.84557105D-07 -0.84557105D-07
 -0.00000000D+00  0.00000000D+00  0.00000000D+00 -0.40736817D-06 -0.18384573D-05
 -0.18384573D-05  0.00000000D+00 -0.00000000D+00  0.00000000D+00  0.35668484D-02
  0.33578952D-02 -0.17608046D-01  0.17953812D-01 -0.83391017D-02 -0.60511289D-02
 -0.18727351D-02  0.59129493D-02  0.19246510D-02 -0.33813075D-03  0.69521317D-04
  0.00000000D+00 -0.00000000D+00 -0.16021514D-03 -0.00000000D+00  0.00000000D+00
  0.38496719D-04  0.00000000D+00 -0.00000000D+00 -0.77409559D-04 -0.00000000D+00
  0.00000000D+00 -0.31282031D-06 -0.84557105D-07 -0.84557105D-07 -0.00000000D+00
  0.00000000D+00 -0.00000000D+00 -0.40736817D-06 -0.18384573D-05 -0.18384573D-05
  0.00000000D+00 -0.00000000D+00 -0.00000000D+00
MO   20     MO 0.0        OCC NO =    0.0000000  ORB. ENERGY =    0.038036
  0.33552729D-03  0.57858776D-03 -0.15798374D-01  0.10408402D-01  0.13497266D-03
 -0.13116074D-01  0.17293237D-02  0.39189440D-02  0.31993607D-02 -0.83163585D-03
 -0.36534477D-04  0.00000000D+00  0.00000000D+00 -0.23171638D-04 -0.00000000D+00
 -0.00000000D+00  0.23804390D-03  0.00000000D+00  0.00000000D+00 -0.26169533D-03
 -0.00000000D+00 -0.00000000D+00 -0.64913959D-06 -0.63473978D-06 -0.63473978D-06
  0.00000000D+00  0.00000000D+00 -0.00000000D+00 -0.51542038D-05 -0.49112009D-05
 -0.49112009D-05 -0.00000000D+00 -0.00000000D+00  0.00000000D+00 -0.33552729D-03
 -0.57858776D-03  0.15798374D-01 -0.10408402D-01 -0.13497266D-03  0.13116074D-01
 -0.17293237D-02 -0.39189440D-02 -0.31993607D-02  0.83163585D-03 -0.36534477D-04
 -0.00000000D+00 -0.00000000D+00 -0.23171638D-04  0.00000000D+00  0.00000000D+00
  0.23804390D-03 -0.00000000D+00 -0.00000000D+00 -0.26169533D-03  0.00000000D+00
  0.00000000D+00  0.64913959D-06  0.63473978D-06  0.63473978D-06  0.00000000D+00
  0.00000000D+00  0.00000000D+00  0.51542038D-05  0.49112009D-05  0.49112009D-05
 -0.00000000D+00 -0.00000000D+00 -0.00000000D+00
MO   21     MO 0.0        OCC NO =    0.0000000  ORB. ENERGY =    0.039179
  0.00000000D+00 -0.00000000D+00  0.00000000D+00 -0.00000000D+00  0.00000000D+00
  0.00000000D+00 -0.00000000D+00 -0.00000000D+00 -0.00000000D+00  0.00000000D+00
 -0.00000000D+00  0.00000000D+00 -0.00000000D+00  0.00000000D+00 -0.00000000D+00
  0.00000000D+00 -0.00000000D+00  0.00000000D+00 -0.00000000D+00  0.00000000D+00
 -0.00000000D+00  0.00000000D+00 -0.00000000D+00 -0.46259201D-07  0.46259201D-07
  0.00000000D+00 -0.00000000D+00  0.13152911D-07  0.00000000D+00  0.62799226D-06
 -0.62799226D-06 -0.00000000D+00  0.00000000D+00 -0.17855747D-06  0.00000000D+00
 -0.00000000D+00 -0.00000000D+00  0.00000000D+00  0.00000000D+00 -0.00000000D+00
  0.00000000D+00  0.00000000D+00  0.00000000D+00 -0.00000000D+00  0.00000000D+00
 -0.00000000D+00  0.00000000D+00 -0.00000000D+00  0.00000000D+00 -0.00000000D+00
 -0.00000000D+00 -0.00000000D+00  0.00000000D+00  0.00000000D+00  0.00000000D+00
 -0.00000000D+00 -0.00000000D+00 -0.46259201D-07  0.46259201D-07  0.00000000D+00
 -0.00000000D+00  0.13152911D-07 -0.00000000D+00  0.62799226D-06 -0.62799226D-06
 -0.00000000D+00  0.00000000D+00 -0.17855747D-06
MO   22     MO 0.0        OCC NO =    0.0000000  ORB. ENERGY =    0.039179
 -0.00000000D+00  0.00000000D+00  0.00000000D+00 -0.00000000D+00 -0.00000000D+00
 -0.00000000D+00 -0.00000000D+00  0.00000000D+00  0.00000000D+00 -0.00000000D+00
  0.00000000D+00 -0.00000000D+00 -0.00000000D+00 -0.00000000D+00  0.00000000D+00
  0.00000000D+00 -0.00000000D+00 -0.00000000D+00 -0.00000000D+00 -0.00000000D+00
 -0.00000000D+00  0.00000000D+00  0.00000000D+00 -0.65764556D-08  0.65764556D-08
 -0.00000000D+00 -0.00000000D+00 -0.92518401D-07  0.00000000D+00  0.89278731D-07
 -0.89278731D-07  0.00000000D+00  0.00000000D+00  0.12559845D-05 -0.00000000D+00
  0.00000000D+00 -0.00000000D+00  0.00000000D+00 -0.00000000D+00 -0.00000000D+00
  0.00000000D+00 -0.00000000D+00  0.00000000D+00 -0.00000000D+00 -0.00000000D+00
  0.00000000D+00  0.00000000D+00  0.00000000D+00 -0.00000000D+00 -0.00000000D+00
 -0.00000000D+00  0.00000000D+00  0.00000000D+00  0.00000000D+00 -0.00000000D+00
  0.00000000D+00  0.00000000D+00 -0.65764556D-08  0.65764556D-08 -0.00000000D+00
 -0.00000000D+00 -0.92518401D-07 -0.00000000D+00  0.89278731D-07 -0.89278731D-07
  0.00000000D+00  0.00000000D+00  0.12559845D-05
MO   23     MO 0.0        OCC NO =    0.0000000  ORB. ENERGY =    0.042459
 -0.20877316D-03  0.77435315D-03 -0.18183258D-02  0.18408503D-02  0.40251799D-02
 -0.10786100D-01  0.23571068D-02  0.17325018D-02  0.24234152D-02 -0.68577181D-03
  0.20980425D-04 -0.00000000D+00 -0.00000000D+00 -0.99550940D-04  0.00000000D+00
  0.00000000D+00  0.12910344D-03 -0.00000000D+00 -0.00000000D+00 -0.14759976D-03
  0.00000000D+00  0.00000000D+00  0.61875473D-06  0.57829694D-06  0.57829694D-06
 -0.00000000D+00 -0.00000000D+00  0.00000000D+00  0.44402915D-06  0.91013749D-06
  0.91013749D-06  0.00000000D+00  0.00000000D+00 -0.00000000D+00  0.20877316D-03
 -0.77435315D-03  0.18183258D-02 -0.18408503D-02 -0.40251799D-02  0.10786100D-01
 -0.23571068D-02 -0.17325018D-02 -0.24234152D-02  0.68577181D-03  0.20980425D-04
  0.00000000D+00  0.00000000D+00 -0.99550940D-04 -0.00000000D+00 -0.00000000D+00
  0.12910344D-03  0.00000000D+00  0.00000000D+00 -0.14759976D-03 -0.00000000D+00
 -0.00000000D+00 -0.61875473D-06 -0.57829694D-06 -0.57829694D-06 -0.00000000D+00
 -0.00000000D+00 -0.00000000D+00 -0.44402915D-06 -0.91013749D-06 -0.91013749D-06
  0.00000000D+00  0.00000000D+00  0.00000000D+00
MO   24     MO 0.0        OCC NO =    0.0000000  ORB. ENERGY =    0.043210
 -0.00000000D+00  0.00000000D+00 -0.00000000D+00  0.00000000D+00  0.00000000D+00
 -0.00000000D+00  0.00000000D+00  0.00000000D+00  0.00000000D+00 -0.00000000D+00
  0.00000000D+00 -0.19723425D-06  0.66748231D-06 -0.00000000D+00  0.12885194D-04
 -0.43606215D-04  0.00000000D+00 -0.61900382D-04  0.20948396D-03 -0.00000000D+00
  0.97159228D-04 -0.32880735D-03  0.00000000D+00  0.00000000D+00  0.00000000D+00
 -0.11119110D-06  0.37629413D-06  0.00000000D+00 -0.00000000D+00  0.00000000D+00
  0.00000000D+00  0.58880292D-06 -0.19926333D-05 -0.00000000D+00 -0.00000000D+00
  0.00000000D+00 -0.00000000D+00  0.00000000D+00  0.00000000D+00 -0.00000000D+00
  0.00000000D+00  0.00000000D+00  0.00000000D+00 -0.00000000D+00 -0.00000000D+00
 -0.19723425D-06  0.66748231D-06  0.00000000D+00  0.12885194D-04 -0.43606215D-04