[Molden Format]
[Atoms] AU
E+       1       4     0.00000000     0.00000000     0.00000000
E+       2       4    11.80000000     0.00000000     0.00000000
[GTO]
  1 0
s  1 1.00
   1.0000000000E-04   1.0000000000E+00
s  1 1.00
   3.0000000000E-04   1.0000000000E+00
s  1 1.00
   9.0000000000E-04   1.0000000000E+00
s  1 1.00
   2.7000000000E-03   1.0000000000E+00
s  1 1.00
   8.1000000000E-03   1.0000000000E+00
s  1 1.00
   2.4300000000E-02   1.0000000000E+00
s  1 1.00
   7.2900000000E-02   1.0000000000E+00
s  1 1.00
   2.1870000000E-01   1.0000000000E+00
s  1 1.00
   6.5610000000E-01   1.0000000000E+00
s  1 1.00
   1.9683000000E+00   1.0000000000E+00
p  1 1.00
   1.0000000000E-04   1.0000000000E+00
p  1 1.00
   3.0000000000E-04   1.0000000000E+00
p  1 1.00
   9.0000000000E-04   1.0000000000E+00
p  1 1.00
   2.7000000000E-03   1.0000000000E+00
d  1 1.00
   1.0000000000E-04   1.0000000000E+00
d  1 1.00
   3.0000000000E-04   1.0000000000E+00
 
  2 0
s  1 1.00
   1.0000000000E-04   1.0000000000E+00
s  1 1.00
   3.0000000000E-04   1.0000000000E+00
s  1 1.00
   9.0000000000E-04   1.0000000000E+00
s  1 1.00
   2.7000000000E-03   1.0000000000E+00
s  1 1.00
   8.1000000000E-03   1.0000000000E+00
s  1 1.00
   2.4300000000E-02   1.0000000000E+00
s  1 1.00
   7.2900000000E-02   1.0000000000E+00
s  1 1.00
   2.1870000000E-01   1.0000000000E+00
s  1 1.00
   6.5610000000E-01   1.0000000000E+00
s  1 1.00
   1.9683000000E+00   1.0000000000E+00
p  1 1.00
   1.0000000000E-04   1.0000000000E+00
p  1 1.00
   3.0000000000E-04   1.0000000000E+00
p  1 1.00
   9.0000000000E-04   1.0000000000E+00
p  1 1.00
   2.7000000000E-03   1.0000000000E+00
d  1 1.00
   1.0000000000E-04   1.0000000000E+00
d  1 1.00
   3.0000000000E-04   1.0000000000E+00
 
 
[MO]
Ene=    -8.11264E-03
Spin= Alpha
Occup=   1.0000000000
   1       0.01033170
   2       0.10991956
   3      -0.03144453
   4      -0.09914661
   5      -0.24889718
   6      -0.22601482
   7      -0.12091247
   8       0.10424070
   9       0.00786644
  10      -0.00021705
  11       0.00616341
  12       0.00000000
  13       0.00000000
  14      -0.45775630
  15       0.00000000
  16       0.00000000
  17       0.02297428
  18      -0.00000000
  19      -0.00000000
  20      -0.02952258
  21       0.00000000
  22       0.00000000
  23      -0.00100683
  24      -0.00148367
  25      -0.00148367
  26       0.00000000
  27       0.00000000
  28      -0.00000000
  29      -0.08689875
  30      -0.00646342
  31      -0.00646342
  32       0.00000000
  33       0.00000000
  34      -0.00000000
  35       0.01033170
  36       0.10991956
  37      -0.03144453
  38      -0.09914661
  39      -0.24889718
  40      -0.22601482
  41      -0.12091247
  42       0.10424070
  43       0.00786644
  44      -0.00021705
  45      -0.00616341
  46      -0.00000000
  47      -0.00000000
  48       0.45775630
  49      -0.00000000
  50      -0.00000000
  51      -0.02297428
  52       0.00000000
  53       0.00000000
  54       0.02952258
  55      -0.00000000
  56      -0.00000000
  57      -0.00100683
  58      -0.00148367
  59      -0.00148367
  60       0.00000000
  61       0.00000000
  62       0.00000000
  63      -0.08689875
  64      -0.00646342
  65      -0.00646342
  66       0.00000000
  67       0.00000000
  68       0.00000000
Ene=     1.61636E-03
Spin= Alpha
Occup=   0.0000000000
   1      -0.00419978
   2      -0.00213442
   3       8.63536181
   4      -0.65753103
   5       0.39849387
   6       0.13489710
   7       0.08956826
   8      -0.07347333
   9      -0.00515315
  10       0.00008819
  11       0.06294877
  12      -0.00000000
  13      -0.00000000
  14       0.03246699
  15      -0.00000000
  16      -0.00000000
  17       1.27210410
  18       0.00000000
  19       0.00000000
  20      -0.33783854
  21      -0.00000000
  22      -0.00000000
  23       0.17681286
  24       0.21965014
  25       0.21965014
  26      -0.00000000
  27      -0.00000000
  28       0.00000000
  29       0.38059505
  30       0.31016979
  31       0.31016979
  32      -0.00000000
  33      -0.00000000
  34       0.00000000
  35       0.00419978
  36       0.00213442
  37      -8.63536181
  38       0.65753103
  39      -0.39849387
  40      -0.13489710
  41      -0.08956826
  42       0.07347333
  43       0.00515315
  44      -0.00008819
  45       0.06294877
  46       0.00000000
  47       0.00000000
  48       0.03246699
  49       0.00000000
  50       0.00000000
  51       1.27210410
  52      -0.00000000
  53      -0.00000000
  54      -0.33783854
  55       0.00000000
  56       0.00000000
  57      -0.17681286
  58      -0.21965014
  59      -0.21965014
  60      -0.00000000
  61      -0.00000000
  62      -0.00000000
  63      -0.38059505
  64      -0.31016979
  65      -0.31016979
  66      -0.00000000
  67      -0.00000000
  68      -0.00000000
Ene=     2.62165E-03
Spin= Alpha
Occup=   0.0000000000
   1      -0.16218521
   2      -0.02438115
   3       1.19026766
   4      -0.71106273
   5       0.12513451
   6      -0.12149466
   7      -0.00602067
   8       0.01685748
   9       0.00315466
  10      -0.00030183
  11      -0.00528474
  12       0.00000000
  13       0.00000000
  14      -1.52475227
  15       0.00000000
  16       0.00000000
  17       0.21215460
  18      -0.00000000
  19      -0.00000000
  20      -0.02964375
  21       0.00000000
  22       0.00000000
  23       0.02138181
  24       0.02301281
  25       0.02301281
  26       0.00000000
  27       0.00000000
  28      -0.00000000
  29      -0.16247381
  30       0.10219759
  31       0.10219759
  32       0.00000000
  33       0.00000000
  34       0.00000000
  35      -0.16218521
  36      -0.02438115
  37       1.19026766
  38      -0.71106273
  39       0.12513451
  40      -0.12149466
  41      -0.00602067
  42       0.01685748
  43       0.00315466
  44      -0.00030183
  45       0.00528474
  46      -0.00000000
  47      -0.00000000
  48       1.52475227
  49      -0.00000000
  50      -0.00000000
  51      -0.21215460
  52       0.00000000
  53       0.00000000
  54       0.02964375
  55      -0.00000000
  56      -0.00000000
  57       0.02138181
  58       0.02301281
  59       0.02301281
  60       0.00000000
  61       0.00000000
  62       0.00000000
  63      -0.16247381
  64       0.10219759
  65       0.10219759
  66       0.00000000
  67       0.00000000
  68      -0.00000000
Ene=     3.58596E-03
Spin= Alpha
Occup=   0.0000000000
   1       0.00000000
   2       0.00000000
   3      -0.00000000
   4       0.00000000
   5      -0.00000000
   6       0.00000000
   7      -0.00000000
   8      -0.00000000
   9      -0.00000000
  10       0.00000000
  11       0.00000000
  12      -0.02765288
  13      -0.00428514
  14      -0.00000000
  15       0.11894920
  16       0.01843260
  17      -0.00000000
  18      -0.55149034
  19      -0.08546002
  20       0.00000000
  21      -0.03449904
  22      -0.00534604
  23      -0.00000000
  24      -0.00000000
  25      -0.00000000
  26      -0.13180915
  27      -0.02042540
  28      -0.00000000
  29      -0.00000000
  30      -0.00000000
  31      -0.00000000
  32       0.06913555
  33       0.01071338
  34       0.00000000
  35       0.00000000
  36       0.00000000
  37       0.00000000
  38      -0.00000000
  39       0.00000000
  40      -0.00000000
  41       0.00000000
  42      -0.00000000
  43       0.00000000
  44      -0.00000000
  45      -0.00000000
  46      -0.02765288
  47      -0.00428514
  48       0.00000000
  49       0.11894920
  50       0.01843260
  51      -0.00000000
  52      -0.55149034
  53      -0.08546002
  54       0.00000000
  55      -0.03449904
  56      -0.00534604
  57       0.00000000
  58       0.00000000
  59       0.00000000
  60       0.13180915
  61       0.02042540
  62       0.00000000
  63      -0.00000000
  64       0.00000000
  65      -0.00000000
  66      -0.06913555
  67      -0.01071338
  68      -0.00000000
Ene=     3.58596E-03
Spin= Alpha
Occup=   0.0000000000
   1      -0.00000000
   2       0.00000000
   3       0.00000000
   4      -0.00000000
   5       0.00000000
   6      -0.00000000
   7      -0.00000000
   8       0.00000000
   9       0.00000000
  10       0.00000000
  11       0.00000000
  12      -0.00428514
  13       0.02765288
  14      -0.00000000
  15       0.01843260
  16      -0.11894920
  17       0.00000000
  18      -0.08546002
  19       0.55149034
  20      -0.00000000
  21      -0.00534604
  22       0.03449904
  23      -0.00000000
  24       0.00000000
  25       0.00000000
  26      -0.02042540
  27       0.13180915
  28       0.00000000
  29      -0.00000000
  30      -0.00000000
  31      -0.00000000
  32       0.01071338
  33      -0.06913555
  34      -0.00000000
  35      -0.00000000
  36       0.00000000
  37      -0.00000000
  38       0.00000000
  39      -0.00000000
  40       0.00000000
  41       0.00000000
  42      -0.00000000
  43      -0.00000000
  44      -0.00000000
  45      -0.00000000
  46      -0.00428514
  47       0.02765288
  48       0.00000000
  49       0.01843260
  50      -0.11894920
  51       0.00000000
  52      -0.08546002
  53       0.55149034
  54      -0.00000000
  55      -0.00534604
  56       0.03449904
  57       0.00000000
  58      -0.00000000
  59      -0.00000000
  60       0.02042540
  61      -0.13180915
  62      -0.00000000
  63      -0.00000000
  64       0.00000000
  65       0.00000000
  66      -0.01071338
  67       0.06913555
  68       0.00000000
Ene=     5.13696E-03
Spin= Alpha
Occup=   0.0000000000
   1      -0.01075704
   2      -0.00603777
   3      23.55203411
   4      -2.38251480
   5      -0.21184685
   6      -0.15254213
   7      -0.06793190
   8       0.06060740
   9       0.00503332
  10      -0.00018057
  11       0.16089233
  12      -0.00000000
  13      -0.00000000
  14       0.09365270
  15      -0.00000000
  16      -0.00000000
  17       3.42924578
  18       0.00000000
  19       0.00000000
  20      -0.32809911
  21      -0.00000000
  22      -0.00000000
  23       0.45261930
  24       0.55970206
  25       0.55970206
  26      -0.00000000
  27      -0.00000000
  28       0.00000000
  29       0.98869963
  30       0.81122885
  31       0.81122885
  32      -0.00000000
  33      -0.00000000
  34      -0.00000000
  35       0.01075704
  36       0.00603777
  37     -23.55203411
  38       2.38251480
  39       0.21184685
  40       0.15254213
  41       0.06793190
  42      -0.06060740
  43      -0.00503332
  44       0.00018057
  45       0.16089232
  46       0.00000000
  47       0.00000000
  48       0.09365270
  49       0.00000000
  50       0.00000000
  51       3.42924578
  52      -0.00000000
  53      -0.00000000
  54      -0.32809911
  55       0.00000000
  56       0.00000000
  57      -0.45261930
  58      -0.55970206
  59      -0.55970206
  60      -0.00000000
  61      -0.00000000
  62      -0.00000000
  63      -0.98869963
  64      -0.81122885
  65      -0.81122885
  66      -0.00000000
  67      -0.00000000
  68       0.00000000
Ene=     6.70107E-03
Spin= Alpha
Occup=   0.0000000000
   1      -0.30137451
   2      -5.30063742
   3       0.37631684
   4       0.62646302
   5      -0.10132354
   6       0.02934350
   7      -0.01362876
   8       0.00580272
   9      -0.00046166
  10       0.00011734
  11      -0.28568023
  12      -0.00000000
  13      -0.00000000
  14      23.44451562
  15      -0.00000000
  16      -0.00000000
  17      -2.06505891
  18       0.00000000
  19       0.00000000
  20      -0.51631686
  21       0.00000000
  22       0.00000000
  23       0.02686560
  24       0.04122039
  25       0.04122039
  26      -0.00000000
  27      -0.00000000
  28       0.00000000
  29       4.30221535
  30       0.21115800
  31       0.21115800
  32      -0.00000000
  33      -0.00000000
  34       0.00000000
  35      -0.30137451
  36      -5.30063742
  37       0.37631684
  38       0.62646302
  39      -0.10132354
  40       0.02934350
  41      -0.01362876
  42       0.00580272
  43      -0.00046166
  44       0.00011734
  45       0.28568023
  46       0.00000000
  47       0.00000000
  48     -23.44451562
  49       0.00000000
  50       0.00000000
  51       2.06505891
  52      -0.00000000
  53      -0.00000000
  54       0.51631686
  55      -0.00000000
  56      -0.00000000
  57       0.02686560
  58       0.04122039
  59       0.04122039
  60      -0.00000000
  61      -0.00000000
  62      -0.00000000
  63       4.30221535
  64       0.21115800
  65       0.21115800
  66      -0.00000000
  67      -0.00000000
  68      -0.00000000
Ene=     6.83204E-03
Spin= Alpha
Occup=   0.0000000000
   1       0.00000000
   2      -0.00000000
   3       0.00000000
   4      -0.00000000
   5       0.00000000
   6      -0.00000000
   7       0.00000000
   8      -0.00000000
   9       0.00000000
  10      -0.00000000
  11      -0.00000000
  12       0.00126532
  13      -0.00012295
  14       0.00000000
  15      -0.00336859
  16       0.00032732
  17       0.00000000
  18       2.32255433
  19      -0.22567620
  20       0.00000000
  21       0.62967389
  22      -0.06118368
  23      -0.00000000
  24      -0.00000000
  25      -0.00000000
  26      -0.03284671
  27       0.00319162
  28       0.00000000
  29       0.00000000
  30      -0.00000000
  31      -0.00000000
  32       0.09712260
  33      -0.00943714
  34      -0.00000000
  35       0.00000000
  36      -0.00000000
  37      -0.00000000
  38      -0.00000000
  39       0.00000000
  40      -0.00000000
  41       0.00000000
  42      -0.00000000
  43       0.00000000
  44      -0.00000000
  45      -0.00000000
  46      -0.00126532
  47       0.00012295
  48      -0.00000000
  49       0.00336859
  50      -0.00032732
  51      -0.00000000
  52      -2.32255433
  53       0.22567620
  54      -0.00000000
  55      -0.62967389
  56       0.06118368
  57      -0.00000000
  58       0.00000000
  59       0.00000000
  60      -0.03284671
  61       0.00319162
  62      -0.00000000
  63       0.00000000
  64      -0.00000000
  65      -0.00000000
  66       0.09712260
  67      -0.00943714
  68       0.00000000
Ene=     6.83204E-03
Spin= Alpha
Occup=   0.0000000000
   1       0.00000000
   2      -0.00000000
   3       0.00000000
   4      -0.00000000
   5       0.00000000
   6      -0.00000000
   7       0.00000000
   8      -0.00000000
   9       0.00000000
  10      -0.00000000
  11      -0.00000000
  12       0.00012295
  13       0.00126532
  14       0.00000000
  15      -0.00032732
  16      -0.00336859
  17       0.00000000
  18       0.22567620
  19       2.32255433
  20       0.00000000
  21       0.06118368
  22       0.62967389
  23      -0.00000000
  24      -0.00000000
  25      -0.00000000
  26      -0.00319162
  27      -0.03284671
  28       0.00000000
  29       0.00000000
  30      -0.00000000
  31      -0.00000000
  32       0.00943714
  33       0.09712260
  34      -0.00000000
  35       0.00000000
  36      -0.00000000
  37      -0.00000000
  38      -0.00000000
  39       0.00000000
  40      -0.00000000
  41       0.00000000
  42      -0.00000000
  43       0.00000000
  44      -0.00000000
  45      -0.00000000
  46      -0.00012295
  47      -0.00126532
  48      -0.00000000
  49       0.00032732
  50       0.00336859
  51      -0.00000000
  52      -0.22567620
  53      -2.32255433
  54      -0.00000000
  55      -0.06118368
  56      -0.62967389
  57      -0.00000000
  58      -0.00000000
  59      -0.00000000
  60      -0.00319162
  61      -0.03284671
  62      -0.00000000
  63       0.00000000
  64      -0.00000000
  65      -0.00000000
  66       0.00943714
  67       0.09712260
  68       0.00000000
Ene=     9.24544E-03
Spin= Alpha
Occup=   0.0000000000
   1      -0.00000000
   2      -0.00000000
   3       0.00000000
   4       0.00000000
   5       0.00000000
   6       0.00000000
   7       0.00000000
   8      -0.00000000
   9       0.00000000
  10      -0.00000000
  11      -0.00000000
  12       0.02827185
  13      -0.00135467
  14       0.00000000
  15      -0.12264317
  16       0.00587657
  17       0.00000000
  18       0.66464851
  19      -0.03184730
  20       0.00000000
  21      -0.77776254
  22       0.03726727
  23      -0.00000000
  24      -0.00000000
  25      -0.00000000
  26       0.12069099
  27      -0.00578303
  28       0.00000000
  29       0.00000000
  30      -0.00000000
  31      -0.00000000
  32      -0.05732881
  33       0.00274697
  34      -0.00000000
  35      -0.00000000
  36      -0.00000000
  37      -0.00000000
  38      -0.00000000
  39      -0.00000000
  40      -0.00000000
  41      -0.00000000
  42       0.00000000
  43       0.00000000
  44       0.00000000
  45       0.00000000
  46       0.02827185
  47      -0.00135467
  48      -0.00000000
  49      -0.12264317
  50       0.00587657
  51       0.00000000
  52       0.66464851
  53      -0.03184730
  54       0.00000000
  55      -0.77776254
  56       0.03726727
  57       0.00000000
  58       0.00000000
  59       0.00000000
  60      -0.12069099
  61       0.00578303
  62      -0.00000000
  63       0.00000000
  64       0.00000000
  65       0.00000000
  66       0.05732881
  67      -0.00274697
  68       0.00000000
Ene=     9.24544E-03
Spin= Alpha
Occup=   0.0000000000
   1       0.00000000
   2       0.00000000
   3       0.00000000
   4       0.00000000
   5      -0.00000000
   6       0.00000000
   7       0.00000000
   8      -0.00000000
   9       0.00000000
  10      -0.00000000
  11       0.00000000
  12      -0.00135467
  13      -0.02827185
  14      -0.00000000
  15       0.00587657
  16       0.12264317
  17       0.00000000
  18      -0.03184730
  19      -0.66464851
  20       0.00000000
  21       0.03726727
  22       0.77776254
  23      -0.00000000
  24       0.00000000
  25      -0.00000000
  26      -0.00578303
  27      -0.12069099
  28       0.00000000
  29      -0.00000000
  30      -0.00000000
  31      -0.00000000
  32       0.00274697
  33       0.05732881
  34       0.00000000
  35       0.00000000
  36       0.00000000
  37      -0.00000000
  38      -0.00000000
  39       0.00000000
  40      -0.00000000
  41      -0.00000000
  42       0.00000000
  43       0.00000000
  44      -0.00000000
  45      -0.00000000
  46      -0.00135467
  47      -0.02827185
  48       0.00000000
  49       0.00587657
  50       0.12264317
  51       0.00000000
  52      -0.03184730
  53      -0.66464851
  54       0.00000000
  55       0.03726727
  56       0.77776254
  57       0.00000000
  58      -0.00000000
  59      -0.00000000
  60       0.00578303
  61       0.12069099
  62      -0.00000000
  63      -0.00000000
  64       0.00000000
  65       0.00000000
  66      -0.00274697
  67      -0.05732881
  68      -0.00000000
Ene=     1.04524E-02
Spin= Alpha
Occup=   0.0000000000
   1      -0.00338085
   2      -0.07084847
   3     -96.96010895
   4     -16.75684766
   5       0.17114260
   6      -0.06367856
   7      -0.00706287
   8       0.01075542
   9       0.00150952
  10      -0.00011808
  11       0.06457701
  12       0.00000000
  13       0.00000000
  14       0.27483562
  15       0.00000000
  16       0.00000000
  17     -17.35570382
  18      -0.00000000
  19      -0.00000000
  20      -6.25527718
  21       0.00000000
  22       0.00000000
  23       0.46604309
  24      -0.01939556
  25      -0.01939556
  26       0.00000000
  27       0.00000000
  28      -0.00000000
  29       0.45482896
  30       1.19005793
  31       1.19005793
  32       0.00000000
  33       0.00000000
  34       0.00000000
  35       0.00338085
  36       0.07084847
  37      96.96010895
  38      16.75684766
  39      -0.17114260
  40       0.06367856
  41       0.00706287
  42      -0.01075542
  43      -0.00150952
  44       0.00011808
  45       0.06457702
  46      -0.00000000
  47      -0.00000000
  48       0.27483560
  49      -0.00000000
  50      -0.00000000
  51     -17.35570382
  52       0.00000000
  53       0.00000000
  54      -6.25527718
  55      -0.00000000
  56      -0.00000000
  57      -0.46604309
  58       0.01939556
  59       0.01939556
  60       0.00000000
  61       0.00000000
  62       0.00000000
  63      -0.45482895
  64      -1.19005793
  65      -1.19005793
  66       0.00000000
  67       0.00000000
  68      -0.00000000
Ene=     1.12939E-02
Spin= Alpha
Occup=   0.0000000000
   1      -0.11845288
   2       2.38917945
   3      -0.88083777
   4       1.63855322
   5      -1.03171315
   6       0.08200348
   7      -0.10491047
   8       0.06057819
   9       0.00012149
  10       0.00052452
  11       0.09914942
  12       0.00000000
  13       0.00000000
  14     -11.01976423
  15       0.00000000
  16       0.00000000
  17       0.59289530
  18      -0.00000000
  19      -0.00000000
  20      -0.18232120
  21       0.00000000
  22       0.00000000
  23       0.02783226
  24       0.01910066
  25       0.01910066
  26       0.00000000
  27       0.00000000
  28       0.00000000
  29      -1.93186431
  30       0.00981416
  31       0.00981416
  32       0.00000000
  33       0.00000000
  34      -0.00000000
  35      -0.11845288
  36       2.38917945
  37      -0.88083777
  38       1.63855322
  39      -1.03171315
  40       0.08200348
  41      -0.10491047
  42       0.06057819
  43       0.00012149
  44       0.00052452
  45      -0.09914942
  46      -0.00000000
  47      -0.00000000
  48      11.01976423
  49      -0.00000000
  50      -0.00000000
  51      -0.59289530
  52       0.00000000
  53       0.00000000
  54       0.18232119
  55      -0.00000000
  56      -0.00000000
  57       0.02783226
  58       0.01910066
  59       0.01910066
  60       0.00000000
  61       0.00000000
  62      -0.00000000
  63      -1.93186431
  64       0.00981416
  65       0.00981416
  66       0.00000000
  67       0.00000000
  68       0.00000000
Ene=     1.47379E-02
Spin= Alpha
Occup=   0.0000000000
   1      -0.00000000
   2      -0.00000000
   3       0.00000000
   4      -0.00000000
   5      -0.00000000
   6       0.00000000
   7      -0.00000000
   8       0.00000000
   9       0.00000000
  10       0.00000000
  11      -0.00000000
  12       0.00087935
  13      -0.00076065
  14       0.00000000
  15      -0.00065856
  16       0.00056966
  17       0.00000000
  18       2.64450776
  19      -2.28752657
  20      -0.00000000
  21      -1.62021161
  22       1.40149981
  23      -0.00000000
  24      -0.00000000
  25      -0.00000000
  26      -0.03023483
  27       0.02615344
  28      -0.00000000
  29      -0.00000000
  30      -0.00000000
  31      -0.00000000
  32       0.09136944
  33      -0.07903551
  34       0.00000000
  35      -0.00000000
  36      -0.00000000
  37      -0.00000000
  38       0.00000000
  39       0.00000000
  40       0.00000000
  41       0.00000000
  42      -0.00000000
  43      -0.00000000
  44      -0.00000000
  45      -0.00000000
  46      -0.00087935
  47       0.00076065
  48      -0.00000000
  49       0.00065856
  50      -0.00056966
  51       0.00000000
  52      -2.64450776
  53       2.28752657
  54      -0.00000000
  55       1.62021161
  56      -1.40149981
  57       0.00000000
  58       0.00000000
  59       0.00000000
  60      -0.03023483
  61       0.02615344
  62       0.00000000
  63       0.00000000
  64       0.00000000
  65       0.00000000
  66       0.09136944
  67      -0.07903551
  68      -0.00000000
Ene=     1.47379E-02
Spin= Alpha
Occup=   0.0000000000
   1       0.00000000
   2       0.00000000
   3      -0.00000000
   4       0.00000000
   5       0.00000000
   6      -0.00000000
   7       0.00000000
   8      -0.00000000
   9       0.00000000
  10      -0.00000000
  11       0.00000000
  12      -0.00076065
  13      -0.00087935
  14      -0.00000000
  15       0.00056966
  16       0.00065856
  17       0.00000000
  18      -2.28752657
  19      -2.64450776
  20      -0.00000000
  21       1.40149981
  22       1.62021161
  23       0.00000000
  24      -0.00000000
  25      -0.00000000
  26       0.02615344
  27       0.03023483
  28      -0.00000000
  29      -0.00000000
  30      -0.00000000
  31      -0.00000000
  32      -0.07903551
  33      -0.09136944
  34       0.00000000
  35       0.00000000
  36       0.00000000
  37       0.00000000
  38      -0.00000000
  39       0.00000000
  40      -0.00000000
  41       0.00000000
  42      -0.00000000
  43       0.00000000
  44      -0.00000000
  45      -0.00000000
  46       0.00076065
  47       0.00087935
  48       0.00000000
  49      -0.00056966
  50      -0.00065856
  51      -0.00000000
  52       2.28752657
  53       2.64450776
  54       0.00000000
  55      -1.40149981
  56      -1.62021161
  57      -0.00000000
  58      -0.00000000
  59      -0.00000000
  60       0.02615344
  61       0.03023483
  62       0.00000000
  63      -0.00000000
  64      -0.00000000
  65      -0.00000000
  66      -0.07903551
  67      -0.09136944
  68      -0.00000000
Ene=     1.48375E-02
Spin= Alpha
Occup=   0.0000000000
   1       0.60677382
   2       5.61115856
   3      -1.38808165
   4      -0.02669328
   5       0.61859262
   6      -0.07073620
   7       0.04657129
   8      -0.02338886
   9       0.00080847
  10      -0.00032549
  11       0.31676239
  12       0.00000000
  13       0.00000000
  14     -22.56377486
  15       0.00000000
  16       0.00000000
  17       2.91736329
  18       0.00000000
  19       0.00000000
  20      -1.68823813
  21      -0.00000000
  22      -0.00000000
  23      -0.07388881
  24      -0.08370358
  25      -0.08370358
  26       0.00000000
  27       0.00000000
  28      -0.00000000
  29      -4.29966677
  30      -0.39194781
  31      -0.39194781
  32       0.00000000
  33       0.00000000
  34      -0.00000000
  35       0.60677382
  36       5.61115856
  37      -1.38808166
  38      -0.02669328
  39       0.61859262
  40      -0.07073620
  41       0.04657129
  42      -0.02338886
  43       0.00080847
  44      -0.00032549
  45      -0.31676239
  46      -0.00000000
  47      -0.00000000
  48      22.56377486
  49      -0.00000000
  50      -0.00000000
  51      -2.91736328
  52      -0.00000000
  53      -0.00000000
  54       1.68823813
  55       0.00000000
  56       0.00000000
  57      -0.07388881
  58      -0.08370358
  59      -0.08370358
  60       0.00000000
  61       0.00000000
  62       0.00000000
  63      -4.29966677
  64      -0.39194781
  65      -0.39194781
  66       0.00000000
  67       0.00000000
  68       0.00000000
Ene=     1.50381E-02
Spin= Alpha
Occup=   0.0000000000
   1      -0.00973168
   2      -0.06135675
   3     -48.83103735
   4      -1.29088689
   5       1.27853152
   6      -0.04057103
   7       0.12823151
   8      -0.07827147
   9      -0.00100391
  10      -0.00055940
  11       0.15500858
  12       0.00000000
  13       0.00000000
  14       0.33243656
  15       0.00000000
  16       0.00000000
  17      -9.83467640
  18       0.00000000
  19       0.00000000
  20       0.66920857
  21      -0.00000000
  22      -0.00000000
  23       0.63319556
  24       0.34958551
  25       0.34958551
  26       0.00000000
  27       0.00000000
  28      -0.00000000
  29       1.11525638
  30       1.51826440
  31       1.51826440
  32       0.00000000
  33       0.00000000
  34       0.00000000
  35       0.00973168
  36       0.06135675
  37      48.83103735
  38       1.29088689
  39      -1.27853152
  40       0.04057103
  41      -0.12823151
  42       0.07827147
  43       0.00100391
  44       0.00055940
  45       0.15500858
  46      -0.00000000
  47      -0.00000000
  48       0.33243655
  49      -0.00000000
  50      -0.00000000
  51      -9.83467640
  52      -0.00000000
  53      -0.00000000
  54       0.66920857
  55       0.00000000
  56       0.00000000
  57      -0.63319556
  58      -0.34958551
  59      -0.34958551
  60       0.00000000
  61       0.00000000
  62       0.00000000
  63      -1.11525638
  64      -1.51826440
  65      -1.51826440
  66       0.00000000
  67       0.00000000
  68      -0.00000000
Ene=     2.17717E-02
Spin= Alpha
Occup=   0.0000000000
   1       0.02507013
   2       0.15390156
   3     162.33310225
   4     -29.00783416
   5       1.48005108
   6      -0.11912597
   7       0.09413894
   8      -0.04911941
   9       0.00103511
  10      -0.00058845
  11      -0.40682765
  12      -0.00000000
  13      -0.00000000
  14      -0.67997894
  15      -0.00000000
  16      -0.00000000
  17      30.52491448
  18      -0.00000000
  19       0.00000000
  20      -9.02213835
  21       0.00000000
  22      -0.00000000
  23      -1.68398813
  24      -1.01962487
  25      -1.01962487
  26      -0.00000000
  27      -0.00000000
  28       0.00000000
  29      -2.60422700
  30      -3.57203144
  31      -3.57203144
  32      -0.00000000
  33      -0.00000000
  34      -0.00000000
  35      -0.02507013
  36      -0.15390156
  37    -162.33310225
  38      29.00783416
  39      -1.48005108
  40       0.11912597
  41      -0.09413894
  42       0.04911941
  43      -0.00103511
  44       0.00058845
  45      -0.40682765
  46       0.00000000
  47       0.00000000
  48      -0.67997891
  49       0.00000000
  50       0.00000000
  51      30.52491448
  52       0.00000000
  53      -0.00000000
  54      -9.02213835
  55      -0.00000000
  56       0.00000000
  57       1.68398813
  58       1.01962487
  59       1.01962487
  60      -0.00000000
  61      -0.00000000
  62      -0.00000000
  63       2.60422699
  64       3.57203144
  65       3.57203144
  66      -0.00000000
  67      -0.00000000
  68       0.00000000
Ene=     2.67365E-02
Spin= Alpha
Occup=   0.0000000000
   1      -2.98460602
   2       2.42853728
   3       4.24200096
   4      -1.99238896
   5       0.49899092
   6       0.12009396
   7       0.01529646
   8      -0.02282988
   9      -0.00334135
  10       0.00026445
  11      -0.10980354
  12       0.00000000