[Molden Format]
[Title]
 Molden2AIM, Version 3.1.0 (02/25/2015)           Time: Thu Oct 17 19:55:10 2024

[Atoms] AU
E+       1       4     0.00000000     0.00000000     0.00000000
E+       2       4    42.40000000     0.00000000     0.00000000
[GTO]
    1 0
 S   1 1.0
    0.1000000000D-03      0.1000000000D+01
 S   1 1.0
    0.3000000000D-03      0.1000000000D+01
 S   1 1.0
    0.9000000000D-03      0.1000000000D+01
 S   1 1.0
    0.2700000000D-02      0.1000000000D+01
 S   1 1.0
    0.8100000000D-02      0.1000000000D+01
 S   1 1.0
    0.2430000000D-01      0.1000000000D+01
 S   1 1.0
    0.7290000000D-01      0.1000000000D+01
 S   1 1.0
    0.2187000000D+00      0.1000000000D+01
 S   1 1.0
    0.6561000000D+00      0.1000000000D+01
 S   1 1.0
    0.1968300000D+01      0.1000000000D+01
 P   1 1.0
    0.1000000000D-03      0.1000000000D+01
 P   1 1.0
    0.3000000000D-03      0.1000000000D+01
 P   1 1.0
    0.9000000000D-03      0.1000000000D+01
 P   1 1.0
    0.2700000000D-02      0.1000000000D+01
 D   1 1.0
    0.1000000000D-03      0.1000000000D+01
 D   1 1.0
    0.3000000000D-03      0.1000000000D+01

    2 0
 S   1 1.0
    0.1000000000D-03      0.1000000000D+01
 S   1 1.0
    0.3000000000D-03      0.1000000000D+01
 S   1 1.0
    0.9000000000D-03      0.1000000000D+01
 S   1 1.0
    0.2700000000D-02      0.1000000000D+01
 S   1 1.0
    0.8100000000D-02      0.1000000000D+01
 S   1 1.0
    0.2430000000D-01      0.1000000000D+01
 S   1 1.0
    0.7290000000D-01      0.1000000000D+01
 S   1 1.0
    0.2187000000D+00      0.1000000000D+01
 S   1 1.0
    0.6561000000D+00      0.1000000000D+01
 S   1 1.0
    0.1968300000D+01      0.1000000000D+01
 P   1 1.0
    0.1000000000D-03      0.1000000000D+01
 P   1 1.0
    0.3000000000D-03      0.1000000000D+01
 P   1 1.0
    0.9000000000D-03      0.1000000000D+01
 P   1 1.0
    0.2700000000D-02      0.1000000000D+01
 D   1 1.0
    0.1000000000D-03      0.1000000000D+01
 D   1 1.0
    0.3000000000D-03      0.1000000000D+01


[MO]
 Ene=         -0.00308374
 Spin= Alpha
 Occup=        1.00000000
    1        0.0061028900
    2        0.0117886500
    3       -0.0320865400
    4       -0.1990530800
    5       -0.2966112300
    6       -0.1968585900
    7       -0.1214060800
    8        0.0981907900
    9        0.0067362400
   10       -0.0000968300
   11       -0.0151271800
   12        0.0000000000
   13        0.0000000000
   14       -0.0017684400
   15       -0.0000000000
   16       -0.0000000000
   17       -0.0083597900
   18        0.0000000000
   19        0.0000000000
   20       -0.0793482400
   21       -0.0000000000
   22       -0.0000000000
   23       -0.0051495800
   24        0.0000155500
   25        0.0000155500
   26        0.0000000000
   27        0.0000000000
   28       -0.0000000000
   29       -0.0047542000
   30       -0.0009313900
   31       -0.0009313900
   32       -0.0000000000
   33       -0.0000000000
   34       -0.0000000000
   35        0.0061028900
   36        0.0117886500
   37       -0.0320865400
   38       -0.1990530800
   39       -0.2966112300
   40       -0.1968585900
   41       -0.1214060800
   42        0.0981907900
   43        0.0067362400
   44       -0.0000968300
   45        0.0151271800
   46       -0.0000000000
   47       -0.0000000000
   48        0.0017684400
   49        0.0000000000
   50        0.0000000000
   51        0.0083597900
   52       -0.0000000000
   53       -0.0000000000
   54        0.0793482400
   55        0.0000000000
   56        0.0000000000
   57       -0.0051495800
   58        0.0000155500
   59        0.0000155500
   60        0.0000000000
   61        0.0000000000
   62        0.0000000000
   63       -0.0047542000
   64       -0.0009313900
   65       -0.0009313900
   66        0.0000000000
   67        0.0000000000
   68        0.0000000000
 Ene=         -0.00284281
 Spin= Alpha
 Occup=        0.00000000
    1        0.0085888300
    2       -0.5754471400
    3       -0.0011291600
    4       -0.2582690900
    5       -0.2816374800
    6       -0.2157372800
    7       -0.1227683800
    8        0.1010665900
    9        0.0072558200
   10       -0.0001456300
   11       -0.0060155600
   12        0.0000000000
   13        0.0000000000
   14       -0.2424561600
   15       -0.0000000000
   16       -0.0000000000
   17        0.0272417600
   18        0.0000000000
   19        0.0000000000
   20       -0.1095755000
   21       -0.0000000000
   22        0.0000000000
   23       -0.0068183600
   24       -0.0061302100
   25       -0.0061302100
   26        0.0000000000
   27        0.0000000000
   28        0.0000000000
   29       -0.0668563600
   30       -0.0149661500
   31       -0.0149661500
   32       -0.0000000000
   33       -0.0000000000
   34       -0.0000000000
   35       -0.0085888300
   36        0.5754471400
   37        0.0011291600
   38        0.2582690900
   39        0.2816374800
   40        0.2157372800
   41        0.1227683800
   42       -0.1010665900
   43       -0.0072558200
   44        0.0001456300
   45       -0.0060155600
   46       -0.0000000000
   47       -0.0000000000
   48       -0.2424561600
   49        0.0000000000
   50        0.0000000000
   51        0.0272417600
   52        0.0000000000
   53       -0.0000000000
   54       -0.1095755000
   55       -0.0000000000
   56        0.0000000000
   57        0.0068183600
   58        0.0061302100
   59        0.0061302100
   60        0.0000000000
   61        0.0000000000
   62        0.0000000000
   63        0.0668563600
   64        0.0149661500
   65        0.0149661500
   66       -0.0000000000
   67       -0.0000000000
   68       -0.0000000000
 Ene=          0.00444197
 Spin= Alpha
 Occup=        0.00000000
    1       -0.6231007600
    2       -0.1207337500
    3        0.9588920700
    4       -0.5585673300
    5       -0.0836260100
    6       -0.1210571700
    7       -0.0419853500
    8        0.0392335400
    9        0.0036560300
   10       -0.0001722500
   11        1.0221841200
   12        0.0000000000
   13        0.0000000000
   14       -0.3259644000
   15       -0.0000000000
   16       -0.0000000000
   17        0.4538299900
   18        0.0000000000
   19       -0.0000000000
   20       -0.0341796300
   21        0.0000000000
   22        0.0000000000
   23        0.4067757800
   24        0.0276965400
   25        0.0276965400
   26        0.0000000000
   27        0.0000000000
   28       -0.0000000000
   29       -0.0191760200
   30        0.0926336300
   31        0.0926336300
   32       -0.0000000000
   33       -0.0000000000
   34        0.0000000000
   35       -0.6231007600
   36       -0.1207337400
   37        0.9588920700
   38       -0.5585673300
   39       -0.0836260100
   40       -0.1210571700
   41       -0.0419853500
   42        0.0392335400
   43        0.0036560300
   44       -0.0001722500
   45       -1.0221841200
   46       -0.0000000000
   47       -0.0000000000
   48        0.3259644000
   49        0.0000000000
   50        0.0000000000
   51       -0.4538299900
   52       -0.0000000000
   53       -0.0000000000
   54        0.0341796300
   55        0.0000000000
   56       -0.0000000000
   57        0.4067757800
   58        0.0276965400
   59        0.0276965400
   60        0.0000000000
   61        0.0000000000
   62        0.0000000000
   63       -0.0191760100
   64        0.0926336300
   65        0.0926336300
   66       -0.0000000000
   67       -0.0000000000
   68       -0.0000000000
 Ene=          0.00802764
 Spin= Alpha
 Occup=        0.00000000
    1        0.0000000000
    2       -0.0000000000
    3        0.0000000000
    4       -0.0000000000
    5       -0.0000000000
    6       -0.0000000000
    7       -0.0000000000
    8        0.0000000000
    9       -0.0000000000
   10        0.0000000000
   11       -0.0000000000
   12       -0.0029894100
   13        0.0320514800
   14       -0.0000000000
   15        0.0085697400
   16       -0.0918819900
   17        0.0000000000
   18       -0.0285359900
   19        0.3059537800
   20        0.0000000000
   21       -0.0387212800
   22        0.4151572500
   23       -0.0000000000
   24       -0.0000000000
   25       -0.0000000000
   26        0.0020784100
   27       -0.0222840800
   28       -0.0000000000
   29       -0.0000000000
   30       -0.0000000000
   31       -0.0000000000
   32       -0.0046233900
   33        0.0495704800
   34        0.0000000000
   35       -0.0000000000
   36        0.0000000000
   37       -0.0000000000
   38        0.0000000000
   39       -0.0000000000
   40        0.0000000000
   41       -0.0000000000
   42        0.0000000000
   43       -0.0000000000
   44        0.0000000000
   45        0.0000000000
   46       -0.0029894100
   47        0.0320514800
   48       -0.0000000000
   49        0.0085697400
   50       -0.0918819900
   51        0.0000000000
   52       -0.0285359900
   53        0.3059537800
   54       -0.0000000000
   55       -0.0387212800
   56        0.4151572500
   57       -0.0000000000
   58        0.0000000000
   59        0.0000000000
   60       -0.0020784100
   61        0.0222840800
   62       -0.0000000000
   63        0.0000000000
   64        0.0000000000
   65        0.0000000000
   66        0.0046233900
   67       -0.0495704800
   68        0.0000000000
 Ene=          0.00802764
 Spin= Alpha
 Occup=        0.00000000
    1        0.0000000000
    2       -0.0000000000
    3        0.0000000000
    4       -0.0000000000
    5       -0.0000000000
    6       -0.0000000000
    7       -0.0000000000
    8        0.0000000000
    9        0.0000000000
   10       -0.0000000000
   11       -0.0000000000
   12        0.0320514800
   13        0.0029894100
   14       -0.0000000000
   15       -0.0918819900
   16       -0.0085697400
   17        0.0000000000
   18        0.3059537800
   19        0.0285359900
   20       -0.0000000000
   21        0.4151572500
   22        0.0387212800
   23       -0.0000000000
   24       -0.0000000000
   25       -0.0000000000
   26       -0.0222840800
   27       -0.0020784100
   28       -0.0000000000
   29       -0.0000000000
   30       -0.0000000000
   31       -0.0000000000
   32        0.0495704800
   33        0.0046233900
   34        0.0000000000
   35       -0.0000000000
   36        0.0000000000
   37       -0.0000000000
   38        0.0000000000
   39       -0.0000000000
   40        0.0000000000
   41       -0.0000000000
   42        0.0000000000
   43       -0.0000000000
   44        0.0000000000
   45        0.0000000000
   46        0.0320514800
   47        0.0029894100
   48       -0.0000000000
   49       -0.0918819900
   50       -0.0085697400
   51        0.0000000000
   52        0.3059537800
   53        0.0285359900
   54       -0.0000000000
   55        0.4151572500
   56        0.0387212800
   57        0.0000000000
   58        0.0000000000
   59        0.0000000000
   60        0.0222840800
   61        0.0020784100
   62        0.0000000000
   63        0.0000000000
   64        0.0000000000
   65        0.0000000000
   66       -0.0495704800
   67       -0.0046233900
   68       -0.0000000000
 Ene=          0.01013240
 Spin= Alpha
 Occup=        0.00000000
    1        0.2012419800
    2      -18.4834318500
    3        1.8595723900
    4        0.2093219600
    5       -0.5585078900
    6       -0.0433909400
    7       -0.0824730200
    8        0.0565829700
    9        0.0022304400
   10        0.0001903400
   11        0.1056706500
   12       -0.0000000000
   13       -0.0000000000
   14       -7.4217688500
   15        0.0000000000
   16       -0.0000000000
   17        0.7391110500
   18       -0.0000000000
   19        0.0000000000
   20        0.4124638600
   21       -0.0000000000
   22        0.0000000000
   23        0.0828125500
   24        0.0565259500
   25        0.0565259500
   26       -0.0000000000
   27       -0.0000000000
   28       -0.0000000000
   29       -1.5147383100
   30        0.0923066300
   31        0.0923066300
   32        0.0000000000
   33       -0.0000000000
   34        0.0000000000
   35       -0.2012419800
   36       18.4834318500
   37       -1.8595723900
   38       -0.2093219600
   39        0.5585078900
   40        0.0433909400
   41        0.0824730200
   42       -0.0565829700
   43       -0.0022304400
   44       -0.0001903400
   45        0.1056706500
   46        0.0000000000
   47        0.0000000000
   48       -7.4217688500
   49       -0.0000000000
   50        0.0000000000
   51        0.7391110500
   52        0.0000000000
   53       -0.0000000000
   54        0.4124638600
   55        0.0000000000
   56       -0.0000000000
   57       -0.0828125500
   58       -0.0565259500
   59       -0.0565259500
   60       -0.0000000000
   61       -0.0000000000
   62        0.0000000000
   63        1.5147383100
   64       -0.0923066300
   65       -0.0923066300
   66        0.0000000000
   67       -0.0000000000
   68       -0.0000000000
 Ene=          0.01026960
 Spin= Alpha
 Occup=        0.00000000
    1       -0.0000000000
    2        0.0000000000
    3        0.0000000000
    4       -0.0000000000
    5       -0.0000000000
    6       -0.0000000000
    7       -0.0000000000
    8        0.0000000000
    9        0.0000000000
   10        0.0000000000
   11        0.0000000000
   12       -0.0118486800
   13        0.1107198700
   14        0.0000000000
   15        0.0106025400
   16       -0.0990753600
   17        0.0000000000
   18       -0.0004179500
   19        0.0039055200
   20       -0.0000000000
   21        0.0788831600
   22       -0.7371230100
   23        0.0000000000
   24        0.0000000000
   25        0.0000000000
   26       -0.0028523000
   27        0.0266532800
   28       -0.0000000000
   29        0.0000000000
   30        0.0000000000
   31        0.0000000000
   32        0.0044737300
   33       -0.0418047500
   34        0.0000000000
   35        0.0000000000
   36       -0.0000000000
   37       -0.0000000000
   38       -0.0000000000
   39        0.0000000000
   40       -0.0000000000
   41        0.0000000000
   42       -0.0000000000
   43        0.0000000000
   44       -0.0000000000
   45        0.0000000000
   46        0.0118486800
   47       -0.1107198700
   48        0.0000000000
   49       -0.0106025400
   50        0.0990753600
   51       -0.0000000000
   52        0.0004179500
   53       -0.0039055200
   54        0.0000000000
   55       -0.0788831600
   56        0.7371230100
   57       -0.0000000000
   58       -0.0000000000
   59       -0.0000000000
   60       -0.0028523000
   61        0.0266532800
   62        0.0000000000
   63       -0.0000000000
   64       -0.0000000000
   65       -0.0000000000
   66        0.0044737300
   67       -0.0418047500
   68       -0.0000000000
 Ene=          0.01026960
 Spin= Alpha
 Occup=        0.00000000
    1        0.0000000000
    2        0.0000000000
    3        0.0000000000
    4        0.0000000000
    5       -0.0000000000
    6       -0.0000000000
    7       -0.0000000000
    8        0.0000000000
    9        0.0000000000
   10       -0.0000000000
   11       -0.0000000000
   12       -0.1107198700
   13       -0.0118486800
   14        0.0000000000
   15        0.0990753600
   16        0.0106025400
   17        0.0000000000
   18       -0.0039055200
   19       -0.0004179500
   20        0.0000000000
   21        0.7371230100
   22        0.0788831600
   23        0.0000000000
   24        0.0000000000
   25        0.0000000000
   26       -0.0266532800
   27       -0.0028523000
   28        0.0000000000
   29        0.0000000000
   30        0.0000000000
   31        0.0000000000
   32        0.0418047500
   33        0.0044737300
   34       -0.0000000000
   35       -0.0000000000
   36       -0.0000000000
   37       -0.0000000000
   38       -0.0000000000
   39        0.0000000000
   40        0.0000000000
   41        0.0000000000
   42       -0.0000000000
   43       -0.0000000000
   44       -0.0000000000
   45        0.0000000000
   46        0.1107198700
   47        0.0118486800
   48        0.0000000000
   49       -0.0990753600
   50       -0.0106025400
   51        0.0000000000
   52        0.0039055200
   53        0.0004179500
   54        0.0000000000
   55       -0.7371230100
   56       -0.0788831600
   57       -0.0000000000
   58       -0.0000000000
   59       -0.0000000000
   60       -0.0266532800
   61       -0.0028523000
   62       -0.0000000000
   63       -0.0000000000
   64       -0.0000000000
   65       -0.0000000000
   66        0.0418047500
   67        0.0044737300
   68        0.0000000000
 Ene=          0.01049790
 Spin= Alpha
 Occup=        0.00000000
    1        0.3470042100
    2       -0.2686844900
    3       -0.5803918200
    4        1.3545587300
    5       -0.7107199800
    6        0.0529611500
    7       -0.0808460900
    8        0.0458070800
    9       -0.0001379100
   10        0.0004308500
   11       -1.3038570300
   12        0.0000000000
   13       -0.0000000000
   14        0.3539321000
   15        0.0000000000
   16        0.0000000000
   17       -0.6386840300
   18        0.0000000000
   19        0.0000000000
   20        0.7740143500
   21       -0.0000000000
   22       -0.0000000000
   23       -0.4561535300
   24        0.0300516800
   25        0.0300516800
   26        0.0000000000
   27       -0.0000000000
   28       -0.0000000000
   29        0.2115069700
   30        0.1024875400
   31        0.1024875400
   32        0.0000000000
   33        0.0000000000
   34        0.0000000000
   35        0.3470042100
   36       -0.2686844900
   37       -0.5803918200
   38        1.3545587300
   39       -0.7107199800
   40        0.0529611500
   41       -0.0808460900
   42        0.0458070800
   43       -0.0001379100
   44        0.0004308500
   45        1.3038570300
   46       -0.0000000000
   47        0.0000000000
   48       -0.3539321000
   49       -0.0000000000
   50       -0.0000000000
   51        0.6386840300
   52       -0.0000000000
   53        0.0000000000
   54       -0.7740143500
   55        0.0000000000
   56        0.0000000000
   57       -0.4561535300
   58        0.0300516800
   59        0.0300516800
   60        0.0000000000
   61       -0.0000000000
   62        0.0000000000
   63        0.2115069700
   64        0.1024875400
   65        0.1024875400
   66        0.0000000000
   67        0.0000000000
   68       -0.0000000000
 Ene=          0.01513000
 Spin= Alpha
 Occup=        0.00000000
    1       -0.0000000000
    2        0.0000000000
    3       -0.0000000000
    4        0.0000000000
    5       -0.0000000000
    6        0.0000000000
    7       -0.0000000000
    8        0.0000000000
    9       -0.0000000000
   10        0.0000000000
   11        0.0000000000
   12       -0.0728118400
   13       -0.0214463900
   14        0.0000000000
   15        0.2264396700
   16        0.0666967500
   17       -0.0000000000
   18       -0.9424516800
   19       -0.2775947400
   20        0.0000000000
   21        0.9082560900
   22        0.2675225900
   23        0.0000000000
   24        0.0000000000
   25        0.0000000000
   26        0.0354190500
   27        0.0104325200
   28       -0.0000000000
   29        0.0000000000
   30        0.0000000000
   31        0.0000000000
   32       -0.0946227500
   33       -0.0278706900
   34        0.0000000000
   35       -0.0000000000
   36       -0.0000000000
   37        0.0000000000
   38       -0.0000000000
   39        0.0000000000
   40       -0.0000000000
   41        0.0000000000
   42       -0.0000000000
   43       -0.0000000000
   44        0.0000000000
   45       -0.0000000000
   46       -0.0728118400
   47       -0.0214463900
   48        0.0000000000
   49        0.2264396700
   50        0.0666967500
   51       -0.0000000000
   52       -0.9424516800
   53       -0.2775947400
   54        0.0000000000
   55        0.9082560900
   56        0.2675225900
   57        0.0000000000
   58       -0.0000000000
   59       -0.0000000000
   60       -0.0354190500
   61       -0.0104325200
   62        0.0000000000
   63       -0.0000000000
   64       -0.0000000000
   65       -0.0000000000
   66        0.0946227500
   67        0.0278706900
   68       -0.0000000000
 Ene=          0.01513000
 Spin= Alpha
 Occup=        0.00000000
    1       -0.0000000000
    2        0.0000000000
    3       -0.0000000000
    4        0.0000000000
    5       -0.0000000000
    6        0.0000000000
    7       -0.0000000000
    8        0.0000000000
    9       -0.0000000000
   10        0.0000000000
   11        0.0000000000
   12        0.0214463900
   13       -0.0728118400
   14        0.0000000000
   15       -0.0666967500
   16        0.2264396700
   17       -0.0000000000
   18        0.2775947400
   19       -0.9424516800
   20        0.0000000000
   21       -0.2675225900
   22        0.9082560900
   23        0.0000000000
   24        0.0000000000
   25        0.0000000000
   26       -0.0104325200
   27        0.0354190500
   28       -0.0000000000
   29        0.0000000000
   30        0.0000000000
   31        0.0000000000
   32        0.0278706900
   33       -0.0946227500
   34        0.0000000000
   35        0.0000000000
   36       -0.0000000000
   37        0.0000000000
   38       -0.0000000000
   39        0.0000000000
   40       -0.0000000000
   41        0.0000000000
   42       -0.0000000000
   43        0.0000000000
   44       -0.0000000000
   45       -0.0000000000
   46        0.0214463900
   47       -0.0728118400
   48        0.0000000000
   49       -0.0666967500
   50        0.2264396700
   51       -0.0000000000
   52        0.2775947400
   53       -0.9424516800
   54        0.0000000000
   55       -0.2675225900
   56        0.9082560900
   57        0.0000000000
   58       -0.0000000000
   59       -0.0000000000
   60        0.0104325200
   61       -0.0354190500
   62        0.0000000000
   63       -0.0000000000
   64       -0.0000000000
   65       -0.0000000000
   66       -0.0278706900
   67        0.0946227500
   68       -0.0000000000
 Ene=          0.01601460
 Spin= Alpha
 Occup=        0.00000000
    1        0.3056832300
    2      -24.3975289800
    3        2.0784315700
    4       -1.0346242100
    5        0.3601897400
    6       -0.0562612900
    7        0.0298976000
    8       -0.0132871800
    9        0.0009014800
   10       -0.0002477200
   11       -0.0200146300
   12       -0.0000000000
   13       -0.0000000000
   14       -9.9845541400
   15        0.0000000000
   16       -0.0000000000
   17        1.2768132600
   18       -0.0000000000
   19       -0.0000000000
   20       -0.9063552200
   21        0.0000000000
   22        0.0000000000
   23       -0.0597987500
   24       -0.0594309400
   25       -0.0594309400
   26       -0.0000000000
   27       -0.0000000000
   28       -0.0000000000
   29       -2.3226187800
   30       -0.1871982600
   31       -0.1871982600
   32        0.0000000000
   33       -0.0000000000
   34        0.0000000000
   35       -0.3056832300
   36       24.3975289800
   37       -2.0784315700
   38        1.0346242100
   39       -0.3601897400
   40        0.0562612900
   41       -0.0298976000
   42        0.0132871800
   43       -0.0009014800
   44        0.0002477200
   45       -0.0200146300
   46        0.0000000000
   47        0.0000000000
   48       -9.9845541400
   49       -0.0000000000
   50        0.0000000000
   51        1.2768132600
   52        0.0000000000
   53        0.0000000000
   54       -0.9063552200
   55       -0.0000000000
   56        0.0000000000
   57        0.0597987500
   58        0.0594309400
   59        0.0594309400
   60       -0.0000000000
   61       -0.0000000000
   62        0.0000000000
   63        2.3226187800
   64        0.1871982600
   65        0.1871982600
   66        0.0000000000
   67       -0.0000000000
   68       -0.0000000000
 Ene=          0.01670880
 Spin= Alpha
 Occup=        0.00000000
    1        0.1449849400
    2       -0.0023636100
    3       -0.2336834900
    4        1.2646649700
    5       -0.7679354300
    6       -0.0204681200
    7       -0.0810275300
    8        0.0533128100
    9        0.0017298900
   10        0.0002360200
   11       -0.3978899700
   12        0.0000000000
   13       -0.0000000000
   14        0.0415611600
   15       -0.0000000000
   16        0.0000000000
   17       -0.1963561600
   18       -0.0000000000
   19       -0.0000000000
   20       -0.2909814300
   21        0.0000000000
   22        0.0000000000
   23       -0.1412149900
   24        0.0022583600
   25        0.0022583600
   26        0.0000000000
   27       -0.0000000000
   28       -0.0000000000
   29       -0.0045413700
   30        0.0157008700
   31        0.0157008700
   32       -0.0000000000
   33        0.0000000000
   34        0.0000000000
   35        0.1449849400
   36       -0.0023636100
   37       -0.2336834900
   38        1.2646649700
   39       -0.7679354300
   40       -0.0204681200
   41       -0.0810275300
   42        0.0533128100
   43        0.0017298900
   44        0.0002360200
   45        0.3978899700
   46       -0.0000000000
   47        0.0000000000
   48       -0.0415611600
   49        0.0000000000
   50       -0.0000000000
   51        0.1963561600
   52        0.0000000000
   53       -0.0000000000
   54        0.2909814300
   55       -0.0000000000
   56        0.0000000000
   57       -0.1412149900
   58        0.0022583600
   59        0.0022583600
   60        0.0000000000
   61       -0.0000000000
   62        0.0000000000
   63       -0.0045413700
   64        0.0157008700
   65        0.0157008700
   66       -0.0000000000
   67        0.0000000000
   68       -0.0000000000
 Ene=          0.01948160
 Spin= Alpha
 Occup=        0.00000000
    1       -0.2751798000
    2       23.6041582600
    3       -3.3898444700
    4        2.3981846800
    5       -1.0301416500
    6        0.0017882700
    7       -0.0944006000
    8        0.0594871400
    9        0.0014125100
   10        0.0003385400
   11       -0.0655537800
   12        0.0000000000
   13        0.0000000000
   14        9.5801577700
   15       -0.0000000000
   16       -0.0000000000
   17       -1.5791444000
   18        0.0000000000
   19        0.0000000000
   20       -0.1426670800
   21       -0.0000000000
   22       -0.0000000000
   23       -0.0194987500
   24       -0.0219608900
   25       -0.0219608900
   26        0.0000000000
   27        0.0000000000
   28        0.0000000000
   29        2.0682079100
   30        0.0438177100
   31        0.0438177100
   32       -0.0000000000
   33        0.0000000000
   34       -0.0000000000
   35        0.2751798000
   36      -23.6041582600
   37        3.3898444700
   38       -2.3981846800
   39        1.0301416500
   40       -0.0017882700
   41        0.0944006000
   42       -0.0594871400
   43       -0.0014125100
   44       -0.0003385400
   45       -0.0655537800
   46       -0.0000000000
   47       -0.0000000000
   48        9.5801577700
   49        0.0000000000
   50        0.0000000000
   51       -1.5791444000
   52       -0.0000000000
   53       -0.0000000000
   54       -0.1426670800
   55        0.0000000000
   56        0.0000000000
   57        0.0194987500
   58        0.0219608900
   59        0.0219608900
   60        0.0000000000
   61        0.0000000000
   62       -0.0000000000
   63       -2.0682079100
   64       -0.0438177100
   65       -0.0438177100
   66       -0.0000000000
   67        0.0000000000
   68        0.0000000000
 Ene=          0.02169530
 Spin= Alpha
 Occup=        0.00000000
    1       -0.0000000000
    2        0.0000000000
    3       -0.0000000000
    4       -0.0000000000
    5        0.0000000000
    6        0.0000000000
    7        0.0000000000
    8       -0.0000000000
    9       -0.0000000000
   10        0.0000000000
   11       -0.0000000000
   12        3.8458740700
   13       -3.0572680000
   14        0.0000000000
   15       -0.8855360600
   16        0.7039546800
   17       -0.0000000000
   18        1.2758121500
   19       -1.0142036900
   20        0.0000000000
   21       -0.6274197500
   22        0.4987657600
   23       -0.0000000000
   24        0.0000000000
   25        0.0000000000
   26        0.7955407900
   27       -0.6324131600
   28       -0.0000000000
   29        0.0000000000
   30        0.0000000000
   31        0.0000000000
   32       -0.1570496800
   33        0.1248462500
   34        0.0000000000
   35        0.0000000000
   36       -0.0000000000
   37        0.0000000000
   38        0.0000000000
   39       -0.0000000000
   40        0.0000000000
   41       -0.0000000000
   42        0.0000000000
   43       -0.0000000000
   44        0.0000000000
   45        0.0000000000
   46       -3.8458740700
   47        3.0572680000
   48        0.0000000000
   49        0.8855360600
   50       -0.7039546800
   51       -0.0000000000
   52       -1.2758121500
   53        1.0142036900
   54        0.0000000000
   55        0.6274197500
   56       -0.4987657600
   57       -0.0000000000
   58       -0.0000000000
   59       -0.0000000000
   60        0.7955407900
   61       -0.6324131600
   62        0.0000000000
   63       -0.0000000000
   64       -0.0000000000
   65       -0.0000000000
   66       -0.1570496800
   67        0.1248462500
   68       -0.0000000000
 Ene=          0.02169530
 Spin= Alpha
 Occup=        0.00000000
    1       -0.0000000000
    2        0.0000000000
    3       -0.0000000000
    4       -0.0000000000
    5        0.0000000000
    6        0.0000000000
    7        0.0000000000
    8       -0.0000000000
    9       -0.0000000000
   10        0.0000000000
   11       -0.0000000000
   12        3.0572680000
   13        3.8458740700
   14        0.0000000000
   15       -0.7039546800
   16       -0.8855360600