[Molden Format]
[Atoms] AU
E+       1       4     0.00000000     0.00000000     0.00000000
E+       2       4    33.60000000     0.00000000     0.00000000
[GTO]
  1 0
s  1 1.00
   1.0000000000E-04   1.0000000000E+00
s  1 1.00
   3.0000000000E-04   1.0000000000E+00
s  1 1.00
   9.0000000000E-04   1.0000000000E+00
s  1 1.00
   2.7000000000E-03   1.0000000000E+00
s  1 1.00
   8.1000000000E-03   1.0000000000E+00
s  1 1.00
   2.4300000000E-02   1.0000000000E+00
s  1 1.00
   7.2900000000E-02   1.0000000000E+00
s  1 1.00
   2.1870000000E-01   1.0000000000E+00
s  1 1.00
   6.5610000000E-01   1.0000000000E+00
s  1 1.00
   1.9683000000E+00   1.0000000000E+00
p  1 1.00
   1.0000000000E-04   1.0000000000E+00
p  1 1.00
   3.0000000000E-04   1.0000000000E+00
p  1 1.00
   9.0000000000E-04   1.0000000000E+00
p  1 1.00
   2.7000000000E-03   1.0000000000E+00
d  1 1.00
   1.0000000000E-04   1.0000000000E+00
d  1 1.00
   3.0000000000E-04   1.0000000000E+00
 
  2 0
s  1 1.00
   1.0000000000E-04   1.0000000000E+00
s  1 1.00
   3.0000000000E-04   1.0000000000E+00
s  1 1.00
   9.0000000000E-04   1.0000000000E+00
s  1 1.00
   2.7000000000E-03   1.0000000000E+00
s  1 1.00
   8.1000000000E-03   1.0000000000E+00
s  1 1.00
   2.4300000000E-02   1.0000000000E+00
s  1 1.00
   7.2900000000E-02   1.0000000000E+00
s  1 1.00
   2.1870000000E-01   1.0000000000E+00
s  1 1.00
   6.5610000000E-01   1.0000000000E+00
s  1 1.00
   1.9683000000E+00   1.0000000000E+00
p  1 1.00
   1.0000000000E-04   1.0000000000E+00
p  1 1.00
   3.0000000000E-04   1.0000000000E+00
p  1 1.00
   9.0000000000E-04   1.0000000000E+00
p  1 1.00
   2.7000000000E-03   1.0000000000E+00
d  1 1.00
   1.0000000000E-04   1.0000000000E+00
d  1 1.00
   3.0000000000E-04   1.0000000000E+00
 
 
[MO]
Ene=    -3.70176E-03
Spin= Alpha
Occup=   1.0000000000
   1      -0.07816734
   2       0.06879672
   3      -0.00001065
   4       0.23430274
   5       0.27071684
   6       0.18794017
   7       0.11853404
   8      -0.09557844
   9      -0.00648223
  10       0.00008474
  11       0.28143275
  12       0.00000000
  13       0.00000000
  14      -0.09682479
  15       0.00000000
  16      -0.00000000
  17       0.05464112
  18      -0.00000000
  19       0.00000000
  20      -0.01522836
  21       0.00000000
  22      -0.00000000
  23       0.08138207
  24      -0.00247663
  25      -0.00247663
  26       0.00000000
  27       0.00000000
  28       0.00000000
  29      -0.05090883
  30      -0.01021121
  31      -0.01021121
  32       0.00000000
  33      -0.00000000
  34      -0.00000000
  35      -0.07816734
  36       0.06879672
  37      -0.00001065
  38       0.23430274
  39       0.27071684
  40       0.18794017
  41       0.11853404
  42      -0.09557844
  43      -0.00648223
  44       0.00008474
  45      -0.28143275
  46      -0.00000000
  47      -0.00000000
  48       0.09682479
  49      -0.00000000
  50       0.00000000
  51      -0.05464112
  52       0.00000000
  53      -0.00000000
  54       0.01522836
  55      -0.00000000
  56       0.00000000
  57       0.08138207
  58      -0.00247663
  59      -0.00247663
  60       0.00000000
  61       0.00000000
  62      -0.00000000
  63      -0.05090883
  64      -0.01021121
  65      -0.01021121
  66       0.00000000
  67      -0.00000000
  68       0.00000000
Ene=    -3.15778E-03
Spin= Alpha
Occup=   0.0000000000
   1      -0.00225367
   2      -0.00841780
   3      -0.04395642
   4      -0.30741361
   5      -0.26900770
   6      -0.20794130
   7      -0.12195129
   8       0.09989604
   9       0.00707339
  10      -0.00013075
  11       0.01156653
  12       0.00000000
  13       0.00000000
  14       0.02073693
  15      -0.00000000
  16      -0.00000000
  17      -0.07814839
  18       0.00000000
  19       0.00000000
  20       0.00283755
  21       0.00000000
  22      -0.00000000
  23       0.01793154
  24       0.00897295
  25       0.00897295
  26       0.00000000
  27       0.00000000
  28       0.00000000
  29       0.03059366
  30       0.03951002
  31       0.03951002
  32      -0.00000000
  33       0.00000000
  34      -0.00000000
  35       0.00225367
  36       0.00841780
  37       0.04395642
  38       0.30741361
  39       0.26900770
  40       0.20794130
  41       0.12195129
  42      -0.09989604
  43      -0.00707339
  44       0.00013075
  45       0.01156653
  46      -0.00000000
  47      -0.00000000
  48       0.02073693
  49       0.00000000
  50       0.00000000
  51      -0.07814839
  52      -0.00000000
  53      -0.00000000
  54       0.00283755
  55       0.00000000
  56       0.00000000
  57      -0.01793154
  58      -0.00897295
  59      -0.00897295
  60       0.00000000
  61      -0.00000000
  62      -0.00000000
  63      -0.03059366
  64      -0.03951002
  65      -0.03951002
  66      -0.00000000
  67      -0.00000000
  68      -0.00000000
Ene=     4.11967E-03
Spin= Alpha
Occup=   0.0000000000
   1      -0.73385904
   2      -0.02005794
   3       1.07328121
   4      -0.76803232
   5      -0.03809358
   6      -0.11192159
   7      -0.03582004
   8       0.03445558
   9       0.00336071
  10      -0.00017311
  11       1.68958361
  12      -0.00000000
  13      -0.00000000
  14      -0.53017697
  15       0.00000000
  16       0.00000000
  17       0.49164001
  18       0.00000000
  19      -0.00000000
  20      -0.05007337
  21       0.00000000
  22       0.00000000
  23       0.52170161
  24       0.02385945
  25       0.02385945
  26      -0.00000000
  27      -0.00000000
  28      -0.00000000
  29      -0.11393782
  30       0.08409133
  31       0.08409133
  32       0.00000000
  33       0.00000000
  34       0.00000000
  35      -0.73385904
  36      -0.02005794
  37       1.07328121
  38      -0.76803232
  39      -0.03809358
  40      -0.11192159
  41      -0.03582004
  42       0.03445558
  43       0.00336071
  44      -0.00017311
  45      -1.68958361
  46       0.00000000
  47       0.00000000
  48       0.53017697
  49      -0.00000000
  50      -0.00000000
  51      -0.49164001
  52       0.00000000
  53       0.00000000
  54       0.05007337
  55      -0.00000000
  56      -0.00000000
  57       0.52170161
  58       0.02385945
  59       0.02385945
  60      -0.00000000
  61      -0.00000000
  62       0.00000000
  63      -0.11393782
  64       0.08409133
  65       0.08409133
  66       0.00000000
  67       0.00000000
  68      -0.00000000
Ene=     5.36899E-03
Spin= Alpha
Occup=   0.0000000000
   1       0.00000000
   2      -0.00000000
   3       0.00000000
   4      -0.00000000
   5      -0.00000000
   6      -0.00000000
   7       0.00000000
   8      -0.00000000
   9       0.00000000
  10      -0.00000000
  11      -0.00000000
  12      -0.02449788
  13      -0.01087434
  14       0.00000000
  15       0.08051020
  16       0.03573759
  17       0.00000000
  18      -0.29251734
  19      -0.12984522
  20       0.00000000
  21      -0.33576782
  22      -0.14904363
  23      -0.00000000
  24       0.00000000
  25       0.00000000
  26      -0.00000239
  27      -0.00000106
  28       0.00000000
  29       0.00000000
  30       0.00000000
  31       0.00000000
  32      -0.02421570
  33      -0.01074908
  34       0.00000000
  35       0.00000000
  36      -0.00000000
  37      -0.00000000
  38      -0.00000000
  39      -0.00000000
  40       0.00000000
  41      -0.00000000
  42       0.00000000
  43      -0.00000000
  44       0.00000000
  45       0.00000000
  46      -0.02449788
  47      -0.01087434
  48      -0.00000000
  49       0.08051020
  50       0.03573759
  51       0.00000000
  52      -0.29251734
  53      -0.12984522
  54      -0.00000000
  55      -0.33576782
  56      -0.14904363
  57      -0.00000000
  58      -0.00000000
  59      -0.00000000
  60       0.00000239
  61       0.00000106
  62      -0.00000000
  63       0.00000000
  64       0.00000000
  65       0.00000000
  66       0.02421570
  67       0.01074908
  68       0.00000000
Ene=     5.36899E-03
Spin= Alpha
Occup=   0.0000000000
   1       0.00000000
   2       0.00000000
   3      -0.00000000
   4       0.00000000
   5       0.00000000
   6      -0.00000000
   7       0.00000000
   8      -0.00000000
   9       0.00000000
  10      -0.00000000
  11      -0.00000000
  12      -0.01087434
  13       0.02449788
  14       0.00000000
  15       0.03573759
  16      -0.08051020
  17      -0.00000000
  18      -0.12984522
  19       0.29251734
  20       0.00000000
  21      -0.14904363
  22       0.33576782
  23      -0.00000000
  24       0.00000000
  25       0.00000000
  26      -0.00000106
  27       0.00000239
  28       0.00000000
  29      -0.00000000
  30       0.00000000
  31       0.00000000
  32      -0.01074908
  33       0.02421570
  34       0.00000000
  35       0.00000000
  36       0.00000000
  37       0.00000000
  38      -0.00000000
  39       0.00000000
  40       0.00000000
  41       0.00000000
  42      -0.00000000
  43       0.00000000
  44       0.00000000
  45       0.00000000
  46      -0.01087434
  47       0.02449788
  48       0.00000000
  49       0.03573759
  50      -0.08051020
  51      -0.00000000
  52      -0.12984522
  53       0.29251734
  54       0.00000000
  55      -0.14904363
  56       0.33576782
  57      -0.00000000
  58       0.00000000
  59       0.00000000
  60       0.00000106
  61      -0.00000239
  62       0.00000000
  63      -0.00000000
  64      -0.00000000
  65      -0.00000000
  66       0.01074908
  67      -0.02421570
  68      -0.00000000
Ene=     7.85375E-03
Spin= Alpha
Occup=   0.0000000000
   1      -0.00000000
   2      -0.00000000
   3       0.00000000
   4      -0.00000000
   5       0.00000000
   6      -0.00000000
   7       0.00000000
   8       0.00000000
   9      -0.00000000
  10       0.00000000
  11       0.00000000
  12      -0.89736580
  13       0.53446570
  14      -0.00000000
  15       0.15038043
  16      -0.08956569
  17       0.00000000
  18      -0.14664043
  19       0.08733816
  20      -0.00000000
  21      -0.62111517
  22       0.36993248
  23       0.00000000
  24      -0.00000000
  25      -0.00000000
  26      -0.14823482
  27       0.08828777
  28      -0.00000000
  29      -0.00000000
  30      -0.00000000
  31      -0.00000000
  32       0.02431343
  33      -0.01448093
  34       0.00000000
  35       0.00000000
  36       0.00000000
  37      -0.00000000
  38      -0.00000000
  39       0.00000000
  40       0.00000000
  41       0.00000000
  42      -0.00000000
  43       0.00000000
  44      -0.00000000
  45      -0.00000000
  46       0.89736580
  47      -0.53446570
  48      -0.00000000
  49      -0.15038043
  50       0.08956569
  51       0.00000000
  52       0.14664043
  53      -0.08733816
  54       0.00000000
  55       0.62111517
  56      -0.36993248
  57       0.00000000
  58       0.00000000
  59       0.00000000
  60      -0.14823482
  61       0.08828777
  62       0.00000000
  63       0.00000000
  64      -0.00000000
  65      -0.00000000
  66       0.02431343
  67      -0.01448093
  68      -0.00000000
Ene=     7.85375E-03
Spin= Alpha
Occup=   0.0000000000
   1      -0.00000000
   2       0.00000000
   3      -0.00000000
   4       0.00000000
   5      -0.00000000
   6       0.00000000
   7      -0.00000000
   8      -0.00000000
   9       0.00000000
  10      -0.00000000
  11      -0.00000000
  12       0.53446570
  13       0.89736580
  14       0.00000000
  15      -0.08956569
  16      -0.15038043
  17      -0.00000000
  18       0.08733816
  19       0.14664043
  20       0.00000000
  21       0.36993248
  22       0.62111517
  23      -0.00000000
  24       0.00000000
  25       0.00000000
  26       0.08828777
  27       0.14823482
  28      -0.00000000
  29       0.00000000
  30      -0.00000000
  31      -0.00000000
  32      -0.01448093
  33      -0.02431343
  34       0.00000000
  35       0.00000000
  36      -0.00000000
  37       0.00000000
  38      -0.00000000
  39      -0.00000000
  40       0.00000000
  41      -0.00000000
  42      -0.00000000
  43      -0.00000000
  44       0.00000000
  45      -0.00000000
  46      -0.53446570
  47      -0.89736580
  48       0.00000000
  49       0.08956569
  50       0.15038043
  51      -0.00000000
  52      -0.08733816
  53      -0.14664043
  54      -0.00000000
  55      -0.36993248
  56      -0.62111517
  57      -0.00000000
  58      -0.00000000
  59      -0.00000000
  60       0.08828777
  61       0.14823482
  62       0.00000000
  63      -0.00000000
  64      -0.00000000
  65      -0.00000000
  66      -0.01448093
  67      -0.02431343
  68      -0.00000000
Ene=     8.64809E-03
Spin= Alpha
Occup=   0.0000000000
   1       0.02328264
   2      -0.00853416
   3      -3.23634753
   4      -0.14713771
   5       0.54980951
   6       0.01939119
   7       0.08062472
   8      -0.05328266
   9      -0.00170446
  10      -0.00023414
  11      -0.12649686
  12       0.00000000
  13       0.00000000
  14       0.03224845
  15      -0.00000000
  16      -0.00000000
  17      -1.20513371
  18       0.00000000
  19       0.00000000
  20      -0.21969010
  21      -0.00000000
  22      -0.00000000
  23      -0.09857158
  24      -0.18688167
  25      -0.18688167
  26       0.00000000
  27       0.00000000
  28      -0.00000000
  29      -0.26066872
  30      -0.10603678
  31      -0.10603678
  32      -0.00000000
  33      -0.00000000
  34       0.00000000
  35      -0.02328264
  36       0.00853416
  37       3.23634753
  38       0.14713771
  39      -0.54980951
  40      -0.01939119
  41      -0.08062472
  42       0.05328266
  43       0.00170446
  44       0.00023414
  45      -0.12649686
  46      -0.00000000
  47      -0.00000000
  48       0.03224845
  49       0.00000000
  50       0.00000000
  51      -1.20513371
  52      -0.00000000
  53      -0.00000000
  54      -0.21969010
  55       0.00000000
  56       0.00000000
  57       0.09857158
  58       0.18688167
  59       0.18688167
  60       0.00000000
  61       0.00000000
  62      -0.00000000
  63       0.26066872
  64       0.10603678
  65       0.10603678
  66      -0.00000000
  67      -0.00000000
  68       0.00000000
Ene=     9.08499E-03
Spin= Alpha
Occup=   0.0000000000
   1      -0.28830930
   2       0.23185957
   3       0.29167235
   4      -0.48019577
   5       0.26671770
   6      -0.04500592
   7       0.03117880
   8      -0.01522261
   9       0.00063292
  10      -0.00022642
  11       1.19017401
  12      -0.00000000
  13      -0.00000000
  14      -0.33901681
  15      -0.00000000
  16       0.00000000
  17       0.33540725
  18      -0.00000000
  19      -0.00000000
  20      -0.69843632
  21       0.00000000
  22      -0.00000000
  23       0.33617755
  24      -0.01678157
  25      -0.01678157
  26      -0.00000000
  27      -0.00000000
  28      -0.00000000
  29      -0.18498555
  30      -0.05610907
  31      -0.05610907
  32      -0.00000000
  33       0.00000000
  34       0.00000000
  35      -0.28830930
  36       0.23185957
  37       0.29167235
  38      -0.48019577
  39       0.26671770
  40      -0.04500592
  41       0.03117880
  42      -0.01522261
  43       0.00063292
  44      -0.00022642
  45      -1.19017401
  46       0.00000000
  47       0.00000000
  48       0.33901681
  49       0.00000000
  50      -0.00000000
  51      -0.33540725
  52       0.00000000
  53       0.00000000
  54       0.69843632
  55      -0.00000000
  56      -0.00000000
  57       0.33617755
  58      -0.01678157
  59      -0.01678157
  60      -0.00000000
  61      -0.00000000
  62       0.00000000
  63      -0.18498555
  64      -0.05610907
  65      -0.05610907
  66      -0.00000000
  67       0.00000000
  68      -0.00000000
Ene=     1.24639E-02
Spin= Alpha
Occup=   0.0000000000
   1       0.00000000
   2      -0.00000000
   3      -0.00000000
   4       0.00000000
   5      -0.00000000
   6       0.00000000
   7      -0.00000000
   8       0.00000000
   9       0.00000000
  10       0.00000000
  11      -0.00000000
  12      -0.00378753
  13      -0.06423601
  14       0.00000000
  15       0.01290096
  16       0.21879876
  17      -0.00000000
  18      -0.05616231
  19      -0.95250587
  20      -0.00000000
  21       0.05482301
  22       0.92979156
  23      -0.00000000
  24       0.00000000
  25       0.00000000
  26      -0.00011239
  27      -0.00190609
  28      -0.00000000
  29       0.00000000
  30       0.00000000
  31       0.00000000
  32      -0.00354700
  33      -0.06015669
  34       0.00000000
  35       0.00000000
  36      -0.00000000
  37      -0.00000000
  38       0.00000000
  39      -0.00000000
  40       0.00000000
  41      -0.00000000
  42       0.00000000
  43       0.00000000
  44       0.00000000
  45       0.00000000
  46      -0.00378753
  47      -0.06423601
  48      -0.00000000
  49       0.01290096
  50       0.21879876
  51       0.00000000
  52      -0.05616231
  53      -0.95250587
  54       0.00000000
  55       0.05482301
  56       0.92979156
  57      -0.00000000
  58       0.00000000
  59       0.00000000
  60       0.00011239
  61       0.00190609
  62      -0.00000000
  63       0.00000000
  64       0.00000000
  65       0.00000000
  66       0.00354700
  67       0.06015669
  68       0.00000000
Ene=     1.24639E-02
Spin= Alpha
Occup=   0.0000000000
   1       0.00000000
   2      -0.00000000
   3      -0.00000000
   4       0.00000000
   5      -0.00000000
   6       0.00000000
   7      -0.00000000
   8       0.00000000
   9       0.00000000
  10       0.00000000
  11      -0.00000000
  12      -0.06423601
  13       0.00378753
  14       0.00000000
  15       0.21879876
  16      -0.01290096
  17      -0.00000000
  18      -0.95250587
  19       0.05616231
  20       0.00000000
  21       0.92979156
  22      -0.05482301
  23      -0.00000000
  24       0.00000000
  25       0.00000000
  26      -0.00190609
  27       0.00011239
  28       0.00000000
  29       0.00000000
  30       0.00000000
  31       0.00000000
  32      -0.06015669
  33       0.00354700
  34      -0.00000000
  35       0.00000000
  36      -0.00000000
  37      -0.00000000
  38       0.00000000
  39      -0.00000000
  40       0.00000000
  41      -0.00000000
  42       0.00000000
  43       0.00000000
  44       0.00000000
  45       0.00000000
  46      -0.06423601
  47       0.00378753
  48      -0.00000000
  49       0.21879876
  50      -0.01290096
  51       0.00000000
  52      -0.95250587
  53       0.05616231
  54       0.00000000
  55       0.92979156
  56      -0.05482301
  57      -0.00000000
  58       0.00000000
  59       0.00000000
  60       0.00190609
  61      -0.00011239
  62      -0.00000000
  63       0.00000000
  64       0.00000000
  65       0.00000000
  66       0.06015669
  67      -0.00354700
  68       0.00000000
Ene=     1.24654E-02
Spin= Alpha
Occup=   0.0000000000
   1      -0.35012285
   2       0.31236680
   3       0.30770214
   4      -1.67685242
   5       1.03413503
   6      -0.01697152
   7       0.11917890
   8      -0.07407569
   9      -0.00145612
  10      -0.00045848
  11       1.70615926
  12      -0.00000000
  13      -0.00000000
  14      -0.31792911
  15       0.00000000
  16       0.00000000
  17       0.49225510
  18      -0.00000000
  19      -0.00000000
  20       0.00187322
  21       0.00000000
  22       0.00000000
  23       0.46944638
  24      -0.03220846
  25      -0.03220846
  26      -0.00000000
  27      -0.00000000
  28      -0.00000000
  29      -0.20470039
  30      -0.11518601
  31      -0.11518601
  32      -0.00000000
  33      -0.00000000
  34       0.00000000
  35      -0.35012285
  36       0.31236680
  37       0.30770214
  38      -1.67685242
  39       1.03413503
  40      -0.01697152
  41       0.11917890
  42      -0.07407569
  43      -0.00145612
  44      -0.00045848
  45      -1.70615926
  46       0.00000000
  47       0.00000000
  48       0.31792911
  49      -0.00000000
  50       0.00000000
  51      -0.49225510
  52      -0.00000000
  53      -0.00000000
  54      -0.00187322
  55       0.00000000
  56       0.00000000
  57       0.46944638
  58      -0.03220846
  59      -0.03220846
  60      -0.00000000
  61      -0.00000000
  62       0.00000000
  63      -0.20470039
  64      -0.11518601
  65      -0.11518601
  66       0.00000000
  67       0.00000000
  68      -0.00000000
Ene=     1.29685E-02
Spin= Alpha
Occup=   0.0000000000
   1       0.01749053
   2       0.00887206
   3      -1.81167049
   4       0.11019221
   5      -0.01224499
   6      -0.07724403
   7      -0.00995234
   8       0.01407460
   9       0.00200407
  10      -0.00015809
  11      -0.09374581
  12       0.00000000
  13      -0.00000000
  14      -0.01469219
  15      -0.00000000
  16      -0.00000000
  17      -0.57341840
  18       0.00000000
  19      -0.00000000
  20      -1.19026105
  21       0.00000000
  22       0.00000000
  23      -0.09016881
  24      -0.12517093
  25      -0.12517093
  26       0.00000000
  27      -0.00000000
  28      -0.00000000
  29      -0.20149404
  30      -0.12888049
  31      -0.12888049
  32      -0.00000000
  33      -0.00000000
  34      -0.00000000
  35      -0.01749053
  36      -0.00887206
  37       1.81167049
  38      -0.11019221
  39       0.01224499
  40       0.07724403
  41       0.00995234
  42      -0.01407460
  43      -0.00200407
  44       0.00015809
  45      -0.09374581
  46      -0.00000000
  47       0.00000000
  48      -0.01469219
  49       0.00000000
  50       0.00000000
  51      -0.57341840
  52      -0.00000000
  53      -0.00000000
  54      -1.19026105
  55       0.00000000
  56       0.00000000
  57       0.09016881
  58       0.12517093
  59       0.12517093
  60       0.00000000
  61      -0.00000000
  62       0.00000000
  63       0.20149404
  64       0.12888049
  65       0.12888049
  66      -0.00000000
  67      -0.00000000
  68      -0.00000000
Ene=     1.76416E-02
Spin= Alpha
Occup=   0.0000000000
   1      -0.01108896
   2       0.03821720
   3       5.08779887
   4      -3.00123360
   5       1.35076004
   6      -0.10050831
   7       0.11807936
   8      -0.06529516
   9       0.00036054
  10      -0.00063992
  11       0.06338459
  12      -0.00000000
  13      -0.00000000
  14      -0.06727243
  15       0.00000000
  16       0.00000000
  17       1.93721397
  18       0.00000000
  19      -0.00000000
  20      -0.45956298
  21      -0.00000000
  22       0.00000000
  23       0.00719780
  24       0.12314714
  25       0.12314714
  26      -0.00000000
  27      -0.00000000
  28      -0.00000000
  29       0.14240251
  30      -0.04278049
  31      -0.04278049
  32       0.00000000
  33       0.00000000
  34       0.00000000
  35       0.01108896
  36      -0.03821720
  37      -5.08779887
  38       3.00123360
  39      -1.35076004
  40       0.10050831
  41      -0.11807936
  42       0.06529516
  43      -0.00036054
  44       0.00063992
  45       0.06338459
  46       0.00000000
  47       0.00000000
  48      -0.06727243
  49      -0.00000000
  50      -0.00000000
  51       1.93721397
  52      -0.00000000
  53       0.00000000
  54      -0.45956298
  55       0.00000000
  56      -0.00000000
  57      -0.00719780
  58      -0.12314714
  59      -0.12314714
  60      -0.00000000
  61      -0.00000000
  62       0.00000000
  63      -0.14240251
  64       0.04278049
  65       0.04278049
  66       0.00000000
  67       0.00000000
  68      -0.00000000
Ene=     1.85276E-02
Spin= Alpha
Occup=   0.0000000000
   1      -0.00000000
   2       0.00000000
   3      -0.00000000
   4       0.00000000
   5      -0.00000000
   6       0.00000000
   7      -0.00000000
   8      -0.00000000
   9      -0.00000000
  10       0.00000000
  11      -0.00000000
  12       9.46378062
  13       2.53149090
  14       0.00000000
  15      -2.05013455
  16      -0.54839574
  17      -0.00000000
  18       1.78515494
  19       0.47751566
  20       0.00000000
  21      -0.84752305
  22      -0.22670611
  23      -0.00000000
  24       0.00000000
  25       0.00000000
  26       1.57447913
  27       0.42116145
  28      -0.00000000
  29       0.00000000
  30       0.00000000
  31       0.00000000
  32      -0.41735689
  33      -0.11163986
  34      -0.00000000
  35       0.00000000
  36      -0.00000000
  37       0.00000000
  38      -0.00000000
  39       0.00000000
  40       0.00000000
  41       0.00000000
  42      -0.00000000
  43      -0.00000000
  44      -0.00000000
  45       0.00000000
  46      -9.46378062
  47      -2.53149090
  48       0.00000000
  49       2.05013455
  50       0.54839574
  51       0.00000000
  52      -1.78515494
  53      -0.47751566
  54      -0.00000000
  55       0.84752305
  56       0.22670611
  57      -0.00000000
  58      -0.00000000
  59       0.00000000
  60       1.57447913
  61       0.42116145
  62      -0.00000000
  63      -0.00000000
  64       0.00000000
  65       0.00000000
  66      -0.41735689
  67      -0.11163986
  68       0.00000000
Ene=     1.85276E-02
Spin= Alpha
Occup=   0.0000000000
   1       0.00000000
   2       0.00000000
   3       0.00000000
   4       0.00000000
   5      -0.00000000
   6       0.00000000
   7      -0.00000000
   8       0.00000000
   9      -0.00000000
  10       0.00000000
  11       0.00000000
  12       2.53149090
  13      -9.46378062
  14       0.00000000
  15      -0.54839574
  16       2.05013455
  17      -0.00000000
  18       0.47751566
  19      -1.78515494
  20      -0.00000000
  21      -0.22670611
  22       0.84752305
  23       0.00000000
  24       0.00000000
  25       0.00000000
  26       0.42116145
  27      -1.57447913
  28      -0.00000000
  29       0.00000000
  30       0.00000000
  31       0.00000000
  32      -0.11163986
  33       0.41735689
  34       0.00000000
  35      -0.00000000
  36      -0.00000000
  37       0.00000000
  38      -0.00000000
  39       0.00000000
  40      -0.00000000
  41       0.00000000
  42      -0.00000000
  43      -0.00000000
  44       0.00000000
  45      -0.00000000
  46      -2.53149090
  47       9.46378062
  48       0.00000000
  49       0.54839574
  50      -2.05013455
  51      -0.00000000
  52      -0.47751566
  53       1.78515494
  54       0.00000000
  55       0.22670611
  56      -0.84752305
  57       0.00000000
  58      -0.00000000
  59      -0.00000000
  60       0.42116145
  61      -1.57447913
  62       0.00000000
  63      -0.00000000
  64       0.00000000
  65      -0.00000000
  66      -0.11163986
  67       0.41735689
  68      -0.00000000
Ene=     2.24101E-02
Spin= Alpha
Occup=   0.0000000000
   1      -1.68774949
   2       1.68043275
   3      -1.78639585
   4       1.20017148
   5      -0.45415859
   6      -0.03173694
   7      -0.03556092
   8       0.02575363
   9       0.00134822
  10       0.00004311
  11       6.22819317
  12      -0.00000000
  13      -0.00000000
  14      -1.69641660
  15       0.00000000
  16       0.00000000
  17       1.30520785
  18      -0.00000000
  19      -0.00000000
  20      -0.63130359
  21      -0.00000000
  22      -0.00000000
  23       1.79467765
  24      -0.05827440
  25      -0.05827440
  26      -0.00000000
  27      -0.00000000
  28      -0.00000000
  29      -0.96524044
  30      -0.30116518
  31      -0.30116518
  32       0.00000000
  33       0.00000000
  34       0.00000000
  35      -1.68774949
  36       1.68043275
  37      -1.78639585
  38       1.20017148
  39      -0.45415859
  40      -0.03173694
  41      -0.03556092
  42       0.02575363
  43       0.00134822
  44       0.00004311
  45      -6.22819317
  46       0.00000000
  47       0.00000000
  48       1.69641660
  49      -0.00000000
  50      -0.00000000
  51      -1.30520785
  52       0.00000000
  53      -0.00000000
  54       0.63130359
  55       0.00000000
  56       0.00000000
  57       1.79467765
  58      -0.05827440
  59      -0.05827440
  60      -0.00000000
  61      -0.00000000
  62       0.00000000
  63      -0.96524044
  64      -0.30116518
  65      -0.30116518
  66       0.00000000
  67       0.00000000
  68      -0.00000000
Ene=     2.52253E-02
Spin= Alpha
Occup=   0.0000000000
   1       0.07143088
   2       0.32491367
   3       3.83971764
   4      -0.27201993
   5       0.09129788
   6      -0.05070120
   7       0.00460735
   8       0.00185886
   9       0.00102402
  10      -0.00012713
  11      -0.36384869
  12       0.00000000
  13      -0.00000000
  14      -0.77768488
  15      -0.00000000
  16       0.00000000
  17       4.29035311
  18      -0.00000000
  19      -0.00000000
  20      -0.99404610
  21       0.00000000
  22       0.00000000
  23      -0.60475260
  24      -0.27931175
  25      -0.27931175
  26       0.00000000
  27      -0.00000000
  28      -0.00000000
  29      -1.01521098
  30      -1.32048993
  31      -1.32048993
  32      -0.00000000
  33       0.00000000
  34       0.00000000
  35      -0.07143088
  36      -0.32491367
  37      -3.83971764
  38       0.27201993
  39      -0.09129788
  40       0.05070120
  41      -0.00460735
  42      -0.00185886
  43      -0.00102402
  44       0.00012713
  45      -0.36384869
  46      -0.00000000
  47       0.00000000
  48      -0.77768488
  49       0.00000000
  50      -0.00000000
  51       4.29035311
  52       0.00000000
  53       0.00000000
  54      -0.99404610
  55      -0.00000000
  56      -0.00000000
  57       0.60475260
  58       0.27931176
  59       0.27931176
  60       0.00000000
  61      -0.00000000
  62       0.00000000
  63       1.01521098
  64       1.32048993
  65       1.32048993
  66      -0.00000000
  67       0.00000000
  68      -0.00000000
Ene=     2.89138E-02
Spin= Alpha
Occup=   0.0000000000
   1       5.09618551
   2       2.15907820
   3      -4.76927639
   4       2.11650401
   5      -0.42853486
   6      -0.13035951
   7      -0.01857925
   8       0.02490242
   9       0.00346671
  10      -0.00026091
  11      -4.74986253
  12       0.00000000