[Molden Format]
[Title]
 Molden2AIM, Version 3.1.0 (02/25/2015)           Time: Thu Oct 17 19:53:51 2024

[Atoms] AU
E+       1       4     0.00000000     0.00000000     0.00000000
E+       2       4    25.00000000     0.00000000     0.00000000
[GTO]
    1 0
 S   1 1.0
    0.1000000000D-03      0.1000000000D+01
 S   1 1.0
    0.3000000000D-03      0.1000000000D+01
 S   1 1.0
    0.9000000000D-03      0.1000000000D+01
 S   1 1.0
    0.2700000000D-02      0.1000000000D+01
 S   1 1.0
    0.8100000000D-02      0.1000000000D+01
 S   1 1.0
    0.2430000000D-01      0.1000000000D+01
 S   1 1.0
    0.7290000000D-01      0.1000000000D+01
 S   1 1.0
    0.2187000000D+00      0.1000000000D+01
 S   1 1.0
    0.6561000000D+00      0.1000000000D+01
 S   1 1.0
    0.1968300000D+01      0.1000000000D+01
 P   1 1.0
    0.1000000000D-03      0.1000000000D+01
 P   1 1.0
    0.3000000000D-03      0.1000000000D+01
 P   1 1.0
    0.9000000000D-03      0.1000000000D+01
 P   1 1.0
    0.2700000000D-02      0.1000000000D+01
 D   1 1.0
    0.1000000000D-03      0.1000000000D+01
 D   1 1.0
    0.3000000000D-03      0.1000000000D+01

    2 0
 S   1 1.0
    0.1000000000D-03      0.1000000000D+01
 S   1 1.0
    0.3000000000D-03      0.1000000000D+01
 S   1 1.0
    0.9000000000D-03      0.1000000000D+01
 S   1 1.0
    0.2700000000D-02      0.1000000000D+01
 S   1 1.0
    0.8100000000D-02      0.1000000000D+01
 S   1 1.0
    0.2430000000D-01      0.1000000000D+01
 S   1 1.0
    0.7290000000D-01      0.1000000000D+01
 S   1 1.0
    0.2187000000D+00      0.1000000000D+01
 S   1 1.0
    0.6561000000D+00      0.1000000000D+01
 S   1 1.0
    0.1968300000D+01      0.1000000000D+01
 P   1 1.0
    0.1000000000D-03      0.1000000000D+01
 P   1 1.0
    0.3000000000D-03      0.1000000000D+01
 P   1 1.0
    0.9000000000D-03      0.1000000000D+01
 P   1 1.0
    0.2700000000D-02      0.1000000000D+01
 D   1 1.0
    0.1000000000D-03      0.1000000000D+01
 D   1 1.0
    0.3000000000D-03      0.1000000000D+01


[MO]
 Ene=         -0.00321109
 Spin= Alpha
 Occup=        1.00000000
    1       -0.0413851200
    2        0.0225415600
    3        0.0278480900
    4        0.2713738400
    5        0.2082165900
    6        0.1721443100
    7        0.1072524700
    8       -0.0873902100
    9       -0.0060521200
   10        0.0000988000
   11        0.2007633900
   12        0.0000000000
   13       -0.0000000000
   14       -0.0511082000
   15        0.0000000000
   16        0.0000000000
   17        0.0280093500
   18       -0.0000000000
   19        0.0000000000
   20       -0.0094467600
   21        0.0000000000
   22       -0.0000000000
   23        0.0425727500
   24       -0.0013328800
   25       -0.0013328800
   26        0.0000000000
   27       -0.0000000000
   28        0.0000000000
   29       -0.0202394600
   30       -0.0039615400
   31       -0.0039615400
   32        0.0000000000
   33        0.0000000000
   34       -0.0000000000
   35       -0.0413851200
   36        0.0225415600
   37        0.0278480900
   38        0.2713738400
   39        0.2082165900
   40        0.1721443100
   41        0.1072524700
   42       -0.0873902100
   43       -0.0060521200
   44        0.0000988000
   45       -0.2007633900
   46       -0.0000000000
   47        0.0000000000
   48        0.0511082000
   49       -0.0000000000
   50       -0.0000000000
   51       -0.0280093500
   52       -0.0000000000
   53        0.0000000000
   54        0.0094467600
   55        0.0000000000
   56       -0.0000000000
   57        0.0425727500
   58       -0.0013328800
   59       -0.0013328800
   60        0.0000000000
   61       -0.0000000000
   62       -0.0000000000
   63       -0.0202394600
   64       -0.0039615400
   65       -0.0039615400
   66        0.0000000000
   67        0.0000000000
   68        0.0000000000
 Ene=         -0.00138516
 Spin= Alpha
 Occup=        0.00000000
    1       -0.0006740900
    2       -0.0044218200
    3       -0.3533404800
    4       -0.3533384600
    5       -0.2351413700
    6       -0.1950758300
    7       -0.1140753300
    8        0.0941094600
    9        0.0067490300
   10       -0.0001371500
   11        0.0045722800
   12       -0.0000000000
   13        0.0000000000
   14        0.0142038400
   15        0.0000000000
   16       -0.0000000000
   17       -0.1548020700
   18       -0.0000000000
   19        0.0000000000
   20        0.0731419000
   21        0.0000000000
   22       -0.0000000000
   23        0.0127902500
   24        0.0018198400
   25        0.0018198400
   26       -0.0000000000
   27        0.0000000000
   28        0.0000000000
   29        0.0162171900
   30        0.0313290500
   31        0.0313290500
   32        0.0000000000
   33       -0.0000000000
   34       -0.0000000000
   35        0.0006740900
   36        0.0044218200
   37        0.3533404800
   38        0.3533384600
   39        0.2351413700
   40        0.1950758300
   41        0.1140753300
   42       -0.0941094600
   43       -0.0067490300
   44        0.0001371500
   45        0.0045722800
   46        0.0000000000
   47       -0.0000000000
   48        0.0142038400
   49       -0.0000000000
   50        0.0000000000
   51       -0.1548020700
   52        0.0000000000
   53       -0.0000000000
   54        0.0731419000
   55        0.0000000000
   56        0.0000000000
   57       -0.0127902500
   58       -0.0018198400
   59       -0.0018198400
   60       -0.0000000000
   61        0.0000000000
   62        0.0000000000
   63       -0.0162171900
   64       -0.0313290500
   65       -0.0313290500
   66        0.0000000000
   67       -0.0000000000
   68       -0.0000000000
 Ene=          0.00382826
 Spin= Alpha
 Occup=        0.00000000
    1       -0.9100998200
    2        0.1372031700
    3        1.1499826700
    4       -0.9080294800
    5        0.0366634400
    6       -0.1209172200
    7       -0.0291856700
    8        0.0314778800
    9        0.0035471600
   10       -0.0002280900
   11        3.1044416000
   12       -0.0000000000
   13       -0.0000000000
   14       -1.0076206400
   15       -0.0000000000
   16        0.0000000000
   17        0.5076023200
   18       -0.0000000000
   19       -0.0000000000
   20       -0.0844646200
   21        0.0000000000
   22        0.0000000000
   23        0.6975877200
   24        0.0187963200
   25        0.0187963200
   26       -0.0000000000
   27       -0.0000000000
   28       -0.0000000000
   29       -0.2579438700
   30        0.0736685000
   31        0.0736685000
   32       -0.0000000000
   33        0.0000000000
   34        0.0000000000
   35       -0.9100998200
   36        0.1372031700
   37        1.1499826700
   38       -0.9080294800
   39        0.0366634400
   40       -0.1209172200
   41       -0.0291856700
   42        0.0314778800
   43        0.0035471600
   44       -0.0002280900
   45       -3.1044416000
   46        0.0000000000
   47        0.0000000000
   48        1.0076206400
   49        0.0000000000
   50       -0.0000000000
   51       -0.5076023200
   52        0.0000000000
   53        0.0000000000
   54        0.0844646200
   55       -0.0000000000
   56        0.0000000000
   57        0.6975877200
   58        0.0187963200
   59        0.0187963200
   60       -0.0000000000
   61       -0.0000000000
   62        0.0000000000
   63       -0.2579438700
   64        0.0736685000
   65        0.0736685000
   66       -0.0000000000
   67        0.0000000000
   68       -0.0000000000
 Ene=          0.00434432
 Spin= Alpha
 Occup=        0.00000000
    1       -0.0000000000
    2       -0.0000000000
    3       -0.0000000000
    4        0.0000000000
    5        0.0000000000
    6        0.0000000000
    7       -0.0000000000
    8       -0.0000000000
    9        0.0000000000
   10        0.0000000000
   11        0.0000000000
   12       -0.0292308900
   13       -0.0013815400
   14        0.0000000000
   15        0.1095473300
   16        0.0051775300
   17       -0.0000000000
   18       -0.4424136400
   19       -0.0209097900
   20       -0.0000000000
   21       -0.2047156300
   22       -0.0096754700
   23        0.0000000000
   24       -0.0000000000
   25       -0.0000000000
   26       -0.0323093400
   27       -0.0015270400
   28        0.0000000000
   29        0.0000000000
   30        0.0000000000
   31        0.0000000000
   32       -0.0031490100
   33       -0.0001488300
   34       -0.0000000000
   35       -0.0000000000
   36       -0.0000000000
   37        0.0000000000
   38       -0.0000000000
   39        0.0000000000
   40       -0.0000000000
   41        0.0000000000
   42       -0.0000000000
   43        0.0000000000
   44       -0.0000000000
   45       -0.0000000000
   46       -0.0292308900
   47       -0.0013815400
   48       -0.0000000000
   49        0.1095473300
   50        0.0051775300
   51       -0.0000000000
   52       -0.4424136400
   53       -0.0209097900
   54       -0.0000000000
   55       -0.2047156300
   56       -0.0096754700
   57        0.0000000000
   58        0.0000000000
   59        0.0000000000
   60        0.0323093400
   61        0.0015270400
   62       -0.0000000000
   63        0.0000000000
   64        0.0000000000
   65        0.0000000000
   66        0.0031490100
   67        0.0001488300
   68        0.0000000000
 Ene=          0.00434432
 Spin= Alpha
 Occup=        0.00000000
    1       -0.0000000000
    2       -0.0000000000
    3        0.0000000000
    4       -0.0000000000
    5       -0.0000000000
    6       -0.0000000000
    7       -0.0000000000
    8        0.0000000000
    9       -0.0000000000
   10       -0.0000000000
   11        0.0000000000
   12        0.0013815400
   13       -0.0292308900
   14        0.0000000000
   15       -0.0051775300
   16        0.1095473300
   17        0.0000000000
   18        0.0209097900
   19       -0.4424136400
   20        0.0000000000
   21        0.0096754700
   22       -0.2047156300
   23        0.0000000000
   24        0.0000000000
   25        0.0000000000
   26        0.0015270400
   27       -0.0323093400
   28        0.0000000000
   29        0.0000000000
   30       -0.0000000000
   31       -0.0000000000
   32        0.0001488300
   33       -0.0031490100
   34       -0.0000000000
   35       -0.0000000000
   36       -0.0000000000
   37       -0.0000000000
   38       -0.0000000000
   39        0.0000000000
   40       -0.0000000000
   41        0.0000000000
   42        0.0000000000
   43       -0.0000000000
   44        0.0000000000
   45       -0.0000000000
   46        0.0013815400
   47       -0.0292308900
   48       -0.0000000000
   49       -0.0051775300
   50        0.1095473300
   51        0.0000000000
   52        0.0209097900
   53       -0.4424136400
   54        0.0000000000
   55        0.0096754700
   56       -0.2047156300
   57        0.0000000000
   58       -0.0000000000
   59       -0.0000000000
   60       -0.0015270400
   61        0.0323093400
   62       -0.0000000000
   63        0.0000000000
   64        0.0000000000
   65        0.0000000000
   66       -0.0001488300
   67        0.0031490100
   68        0.0000000000
 Ene=          0.00670108
 Spin= Alpha
 Occup=        0.00000000
    1       -0.0159988800
    2        0.0008298100
    3        5.3169596500
    4       -0.2129214800
    5       -0.4046460200
    6       -0.0549541400
    7       -0.0789558600
    8        0.0563381400
    9        0.0026162100
   10        0.0001281000
   11        0.1158156300
   12       -0.0000000000
   13       -0.0000000000
   14        0.0034083200
   15        0.0000000000
   16        0.0000000000
   17        1.5290918200
   18       -0.0000000000
   19       -0.0000000000
   20       -0.1072430900
   21       -0.0000000000
   22       -0.0000000000
   23        0.1290149600
   24        0.2175304700
   25        0.2175304700
   26       -0.0000000000
   27       -0.0000000000
   28       -0.0000000000
   29        0.3294240500
   30        0.1767279700
   31        0.1767279700
   32        0.0000000000
   33        0.0000000000
   34       -0.0000000000
   35        0.0159988800
   36       -0.0008298100
   37       -5.3169596500
   38        0.2129214800
   39        0.4046460200
   40        0.0549541400
   41        0.0789558600
   42       -0.0563381400
   43       -0.0026162100
   44       -0.0001281000
   45        0.1158156300
   46        0.0000000000
   47        0.0000000000
   48        0.0034083200
   49       -0.0000000000
   50       -0.0000000000
   51        1.5290918200
   52        0.0000000000
   53        0.0000000000
   54       -0.1072430900
   55        0.0000000000
   56        0.0000000000
   57       -0.1290149600
   58       -0.2175304700
   59       -0.2175304700
   60       -0.0000000000
   61       -0.0000000000
   62       -0.0000000000
   63       -0.3294240500
   64       -0.1767279700
   65       -0.1767279700
   66        0.0000000000
   67        0.0000000000
   68        0.0000000000
 Ene=          0.00712135
 Spin= Alpha
 Occup=        0.00000000
    1       -0.5716957100
    2        0.3429741100
    3        0.0495137500
    4       -0.6178547900
    5        0.2283495600
    6       -0.0230245200
    7        0.0233930200
    8       -0.0129409500
    9        0.0000732200
   10       -0.0001251900
   11        2.4880293000
   12        0.0000000000
   13       -0.0000000000
   14       -0.6833411000
   15       -0.0000000000
   16        0.0000000000
   17        0.2939295800
   18        0.0000000000
   19       -0.0000000000
   20        0.5771369800
   21        0.0000000000
   22       -0.0000000000
   23        0.5376263000
   24       -0.0072310400
   25       -0.0072310400
   26        0.0000000000
   27       -0.0000000000
   28       -0.0000000000
   29       -0.2596635200
   30       -0.0352507100
   31       -0.0352507100
   32       -0.0000000000
   33        0.0000000000
   34        0.0000000000
   35       -0.5716957100
   36        0.3429741100
   37        0.0495137500
   38       -0.6178547900
   39        0.2283495600
   40       -0.0230245200
   41        0.0233930200
   42       -0.0129409500
   43        0.0000732200
   44       -0.0001251900
   45       -2.4880293000
   46       -0.0000000000
   47        0.0000000000
   48        0.6833411000
   49        0.0000000000
   50       -0.0000000000
   51       -0.2939295800
   52       -0.0000000000
   53        0.0000000000
   54       -0.5771369800
   55       -0.0000000000
   56        0.0000000000
   57        0.5376263000
   58       -0.0072310400
   59       -0.0072310400
   60        0.0000000000
   61       -0.0000000000
   62       -0.0000000000
   63       -0.2596635200
   64       -0.0352507100
   65       -0.0352507100
   66       -0.0000000000
   67        0.0000000000
   68       -0.0000000000
 Ene=          0.00719464
 Spin= Alpha
 Occup=        0.00000000
    1        0.0000000000
    2       -0.0000000000
    3       -0.0000000000
    4        0.0000000000
    5       -0.0000000000
    6        0.0000000000
    7       -0.0000000000
    8       -0.0000000000
    9       -0.0000000000
   10        0.0000000000
   11        0.0000000000
   12        5.7182541100
   13       -5.2534177900
   14       -0.0000000000
   15       -1.2584111600
   16        1.1561150400
   17        0.0000000000
   18        0.4627217200
   19       -0.4251071200
   20       -0.0000000000
   21        0.4886243600
   22       -0.4489041400
   23        0.0000000000
   24       -0.0000000000
   25       -0.0000000000
   26        0.7126217400
   27       -0.6546927900
   28       -0.0000000000
   29       -0.0000000000
   30       -0.0000000000
   31       -0.0000000000
   32       -0.2339338100
   33        0.2149173600
   34       -0.0000000000
   35       -0.0000000000
   36        0.0000000000
   37       -0.0000000000
   38        0.0000000000
   39       -0.0000000000
   40        0.0000000000
   41       -0.0000000000
   42        0.0000000000
   43       -0.0000000000
   44       -0.0000000000
   45       -0.0000000000
   46       -5.7182541100
   47        5.2534177900
   48       -0.0000000000
   49        1.2584111600
   50       -1.1561150400
   51        0.0000000000
   52       -0.4627217200
   53        0.4251071200
   54        0.0000000000
   55       -0.4886243600
   56        0.4489041400
   57        0.0000000000
   58        0.0000000000
   59        0.0000000000
   60        0.7126217400
   61       -0.6546927900
   62       -0.0000000000
   63        0.0000000000
   64       -0.0000000000
   65       -0.0000000000
   66       -0.2339338100
   67        0.2149173600
   68        0.0000000000
 Ene=          0.00719464
 Spin= Alpha
 Occup=        0.00000000
    1       -0.0000000000
    2        0.0000000000
    3        0.0000000000
    4       -0.0000000000
    5       -0.0000000000
    6       -0.0000000000
    7       -0.0000000000
    8        0.0000000000
    9        0.0000000000
   10       -0.0000000000
   11       -0.0000000000
   12        5.2534177900
   13        5.7182541100
   14        0.0000000000
   15       -1.1561150400
   16       -1.2584111600
   17       -0.0000000000
   18        0.4251071200
   19        0.4627217200
   20        0.0000000000
   21        0.4489041400
   22        0.4886243600
   23       -0.0000000000
   24        0.0000000000
   25        0.0000000000
   26        0.6546927900
   27        0.7126217400
   28       -0.0000000000
   29        0.0000000000
   30        0.0000000000
   31        0.0000000000
   32       -0.2149173600
   33       -0.2339338100
   34        0.0000000000
   35        0.0000000000
   36       -0.0000000000
   37       -0.0000000000
   38       -0.0000000000
   39        0.0000000000
   40       -0.0000000000
   41        0.0000000000
   42       -0.0000000000
   43       -0.0000000000
   44       -0.0000000000
   45       -0.0000000000
   46       -5.2534177900
   47       -5.7182541100
   48        0.0000000000
   49        1.1561150400
   50        1.2584111600
   51        0.0000000000
   52       -0.4251071200
   53       -0.4627217200
   54       -0.0000000000
   55       -0.4489041400
   56       -0.4886243600
   57        0.0000000000
   58       -0.0000000000
   59       -0.0000000000
   60        0.6546927900
   61        0.7126217400
   62        0.0000000000
   63       -0.0000000000
   64       -0.0000000000
   65       -0.0000000000
   66       -0.2149173600
   67       -0.2339338100
   68       -0.0000000000
 Ene=          0.01089850
 Spin= Alpha
 Occup=        0.00000000
    1        0.0000000000
    2       -0.0000000000
    3       -0.0000000000
    4       -0.0000000000
    5       -0.0000000000
    6       -0.0000000000
    7       -0.0000000000
    8        0.0000000000
    9        0.0000000000
   10       -0.0000000000
   11       -0.0000000000
   12        0.0448278900
   13        0.0156526400
   14        0.0000000000
   15       -0.1676833000
   16       -0.0585503000
   17       -0.0000000000
   18        0.7977858900
   19        0.2785644200
   20       -0.0000000000
   21       -0.8438751000
   22       -0.2946574800
   23       -0.0000000000
   24       -0.0000000000
   25       -0.0000000000
   26        0.0366229000
   27        0.0127876900
   28       -0.0000000000
   29        0.0000000000
   30        0.0000000000
   31        0.0000000000
   32        0.0180012000
   33        0.0062855100
   34        0.0000000000
   35        0.0000000000
   36       -0.0000000000
   37        0.0000000000
   38        0.0000000000
   39       -0.0000000000
   40        0.0000000000
   41        0.0000000000
   42       -0.0000000000
   43       -0.0000000000
   44       -0.0000000000
   45        0.0000000000
   46        0.0448278900
   47        0.0156526400
   48       -0.0000000000
   49       -0.1676833000
   50       -0.0585503000
   51       -0.0000000000
   52        0.7977858900
   53        0.2785644200
   54       -0.0000000000
   55       -0.8438751000
   56       -0.2946574800
   57       -0.0000000000
   58        0.0000000000
   59        0.0000000000
   60       -0.0366229000
   61       -0.0127876900
   62        0.0000000000
   63        0.0000000000
   64        0.0000000000
   65        0.0000000000
   66       -0.0180012000
   67       -0.0062855100
   68       -0.0000000000
 Ene=          0.01089850
 Spin= Alpha
 Occup=        0.00000000
    1        0.0000000000
    2        0.0000000000
    3        0.0000000000
    4        0.0000000000
    5        0.0000000000
    6        0.0000000000
    7        0.0000000000
    8       -0.0000000000
    9       -0.0000000000
   10       -0.0000000000
   11       -0.0000000000
   12       -0.0156526400
   13        0.0448278900
   14        0.0000000000
   15        0.0585503000
   16       -0.1676833000
   17        0.0000000000
   18       -0.2785644200
   19        0.7977858900
   20        0.0000000000
   21        0.2946574800
   22       -0.8438751000
   23       -0.0000000000
   24        0.0000000000
   25        0.0000000000
   26       -0.0127876900
   27        0.0366229000
   28       -0.0000000000
   29        0.0000000000
   30        0.0000000000
   31        0.0000000000
   32       -0.0062855100
   33        0.0180012000
   34        0.0000000000
   35        0.0000000000
   36       -0.0000000000
   37       -0.0000000000
   38       -0.0000000000
   39       -0.0000000000
   40       -0.0000000000
   41       -0.0000000000
   42        0.0000000000
   43        0.0000000000
   44        0.0000000000
   45        0.0000000000
   46       -0.0156526400
   47        0.0448278900
   48       -0.0000000000
   49        0.0585503000
   50       -0.1676833000
   51        0.0000000000
   52       -0.2785644200
   53        0.7977858900
   54        0.0000000000
   55        0.2946574800
   56       -0.8438751000
   57       -0.0000000000
   58       -0.0000000000
   59       -0.0000000000
   60        0.0127876900
   61       -0.0366229000
   62        0.0000000000
   63       -0.0000000000
   64        0.0000000000
   65        0.0000000000
   66        0.0062855100
   67       -0.0180012000
   68       -0.0000000000
 Ene=          0.01093420
 Spin= Alpha
 Occup=        0.00000000
    1       -0.0110390200
    2        0.0318860000
    3        8.0836819000
    4        0.4428311400
    5        0.0254520900
    6        0.0563405000
    7        0.0155980600
    8       -0.0159269900
    9       -0.0016929900
   10        0.0000988700
   11        0.0816450800
   12       -0.0000000000
   13       -0.0000000000
   14       -0.0915950600
   15        0.0000000000
   16        0.0000000000
   17        2.7026329500
   18        0.0000000000
   19       -0.0000000000
   20        1.7210282500
   21       -0.0000000000
   22        0.0000000000
   23        0.0419744500
   24        0.1972423900
   25        0.1972423900
   26       -0.0000000000
   27       -0.0000000000
   28        0.0000000000
   29        0.2075556600
   30       -0.0332156000
   31       -0.0332156000
   32        0.0000000000
   33        0.0000000000
   34       -0.0000000000
   35        0.0110390200
   36       -0.0318860000
   37       -8.0836819000
   38       -0.4428311400
   39       -0.0254520900
   40       -0.0563405000
   41       -0.0155980600
   42        0.0159269900
   43        0.0016929900
   44       -0.0000988700
   45        0.0816450800
   46        0.0000000000
   47        0.0000000000
   48       -0.0915950600
   49       -0.0000000000
   50       -0.0000000000
   51        2.7026329500
   52        0.0000000000
   53        0.0000000000
   54        1.7210282500
   55       -0.0000000000
   56       -0.0000000000
   57       -0.0419744500
   58       -0.1972423900
   59       -0.1972423900
   60       -0.0000000000
   61       -0.0000000000
   62       -0.0000000000
   63       -0.2075556600
   64        0.0332156000
   65        0.0332156000
   66        0.0000000000
   67        0.0000000000
   68        0.0000000000
 Ene=          0.01284230
 Spin= Alpha
 Occup=        0.00000000
    1       -0.7511274500
    2        0.7652609100
    3       -0.0199196600
    4       -1.5158588600
    5        1.2132952600
    6       -0.0799216900
    7        0.1420292300
    8       -0.0828453000
    9       -0.0004002600
   10       -0.0006849000
   11        4.8997047600
   12        0.0000000000
   13       -0.0000000000
   14       -0.8304116800
   15       -0.0000000000
   16        0.0000000000
   17        0.7014226700
   18        0.0000000000
   19       -0.0000000000
   20       -0.3345041600
   21       -0.0000000000
   22        0.0000000000
   23        1.0012731500
   24       -0.0695595200
   25       -0.0695595200
   26        0.0000000000
   27       -0.0000000000
   28        0.0000000000
   29       -0.4827412300
   30       -0.2419985200
   31       -0.2419985200
   32       -0.0000000000
   33        0.0000000000
   34        0.0000000000
   35       -0.7511274500
   36        0.7652609100
   37       -0.0199196600
   38       -1.5158588600
   39        1.2132952600
   40       -0.0799216900
   41        0.1420292300
   42       -0.0828453000
   43       -0.0004002600
   44       -0.0006849000
   45       -4.8997047600
   46       -0.0000000000
   47        0.0000000000
   48        0.8304116800
   49        0.0000000000
   50       -0.0000000000
   51       -0.7014226700
   52       -0.0000000000
   53        0.0000000000
   54        0.3345041600
   55        0.0000000000
   56       -0.0000000000
   57        1.0012731500
   58       -0.0695595200
   59       -0.0695595200
   60        0.0000000000
   61       -0.0000000000
   62        0.0000000000
   63       -0.4827412300
   64       -0.2419985200
   65       -0.2419985200
   66       -0.0000000000
   67        0.0000000000
   68       -0.0000000000
 Ene=          0.01622610
 Spin= Alpha
 Occup=        0.00000000
    1       -0.0000000000
    2        0.0000000000
    3       -0.0000000000
    4        0.0000000000
    5       -0.0000000000
    6        0.0000000000
    7       -0.0000000000
    8        0.0000000000
    9        0.0000000000
   10        0.0000000000
   11       -0.0000000000
   12        1.7377445700
   13       21.8266224100
   14        0.0000000000
   15       -0.3682299700
   16       -4.6250850500
   17       -0.0000000000
   18        0.1739557000
   19        2.1849386900
   20        0.0000000000
   21       -0.0872746300
   22       -1.0961970600
   23       -0.0000000000
   24        0.0000000000
   25        0.0000000000
   26        0.2164877900
   27        2.7191552300
   28        0.0000000000
   29        0.0000000000
   30        0.0000000000
   31        0.0000000000
   32       -0.0674549400
   33       -0.8472554700
   34        0.0000000000
   35        0.0000000000
   36       -0.0000000000
   37        0.0000000000
   38       -0.0000000000
   39        0.0000000000
   40       -0.0000000000
   41        0.0000000000
   42       -0.0000000000
   43        0.0000000000
   44       -0.0000000000
   45        0.0000000000
   46       -1.7377445700
   47      -21.8266224100
   48        0.0000000000
   49        0.3682299700
   50        4.6250850500
   51        0.0000000000
   52       -0.1739557000
   53       -2.1849386900
   54       -0.0000000000
   55        0.0872746300
   56        1.0961970600
   57       -0.0000000000
   58       -0.0000000000
   59       -0.0000000000
   60        0.2164877900
   61        2.7191552300
   62       -0.0000000000
   63       -0.0000000000
   64        0.0000000000
   65        0.0000000000
   66       -0.0674549400
   67       -0.8472554700
   68       -0.0000000000
 Ene=          0.01622610
 Spin= Alpha
 Occup=        0.00000000
    1        0.0000000000
    2       -0.0000000000
    3        0.0000000000
    4       -0.0000000000
    5        0.0000000000
    6       -0.0000000000
    7        0.0000000000
    8       -0.0000000000
    9        0.0000000000
   10       -0.0000000000
   11       -0.0000000000
   12      -21.8266224100
   13        1.7377445700
   14       -0.0000000000
   15        4.6250850500
   16       -0.3682299700
   17       -0.0000000000
   18       -2.1849386900
   19        0.1739557000
   20       -0.0000000000
   21        1.0961970600
   22       -0.0872746300
   23       -0.0000000000
   24        0.0000000000
   25        0.0000000000
   26       -2.7191552300
   27        0.2164877900
   28        0.0000000000
   29        0.0000000000
   30        0.0000000000
   31        0.0000000000
   32        0.8472554700
   33       -0.0674549400
   34        0.0000000000
   35       -0.0000000000
   36        0.0000000000
   37       -0.0000000000
   38        0.0000000000
   39       -0.0000000000
   40        0.0000000000
   41       -0.0000000000
   42        0.0000000000
   43        0.0000000000
   44        0.0000000000
   45        0.0000000000
   46       21.8266224100
   47       -1.7377445700
   48       -0.0000000000
   49       -4.6250850500
   50        0.3682299700
   51        0.0000000000
   52        2.1849386900
   53       -0.1739557000
   54       -0.0000000000
   55       -1.0961970600
   56        0.0872746300
   57       -0.0000000000
   58        0.0000000000
   59        0.0000000000
   60       -2.7191552300
   61        0.2164877900
   62       -0.0000000000
   63        0.0000000000
   64        0.0000000000
   65        0.0000000000
   66        0.8472554700
   67       -0.0674549400
   68       -0.0000000000
 Ene=          0.01650110
 Spin= Alpha
 Occup=        0.00000000
    1       -0.0144993200
    2       -0.0369218300
    3        3.4673236700
    4       -3.4126065100
    5        1.3858684800
    6       -0.1196337500
    7        0.1214420500
    8       -0.0661342500
    9        0.0006609000
   10       -0.0006875200
   11        0.1026923600
   12       -0.0000000000
   13       -0.0000000000
   14        0.1508000700
   15       -0.0000000000
   16       -0.0000000000