[Molden Format]
[Atoms] AU
E+       1       4     0.00000000     0.00000000     0.00000000
E+       2       4    50.20000000     0.00000000     0.00000000
[GTO]
  1 0
s  1 1.00
   1.0000000000E-04   1.0000000000E+00
s  1 1.00
   3.0000000000E-04   1.0000000000E+00
s  1 1.00
   9.0000000000E-04   1.0000000000E+00
s  1 1.00
   2.7000000000E-03   1.0000000000E+00
s  1 1.00
   8.1000000000E-03   1.0000000000E+00
s  1 1.00
   2.4300000000E-02   1.0000000000E+00
s  1 1.00
   7.2900000000E-02   1.0000000000E+00
s  1 1.00
   2.1870000000E-01   1.0000000000E+00
s  1 1.00
   6.5610000000E-01   1.0000000000E+00
s  1 1.00
   1.9683000000E+00   1.0000000000E+00
p  1 1.00
   1.0000000000E-04   1.0000000000E+00
p  1 1.00
   3.0000000000E-04   1.0000000000E+00
p  1 1.00
   9.0000000000E-04   1.0000000000E+00
p  1 1.00
   2.7000000000E-03   1.0000000000E+00
d  1 1.00
   1.0000000000E-04   1.0000000000E+00
d  1 1.00
   3.0000000000E-04   1.0000000000E+00
 
  2 0
s  1 1.00
   1.0000000000E-04   1.0000000000E+00
s  1 1.00
   3.0000000000E-04   1.0000000000E+00
s  1 1.00
   9.0000000000E-04   1.0000000000E+00
s  1 1.00
   2.7000000000E-03   1.0000000000E+00
s  1 1.00
   8.1000000000E-03   1.0000000000E+00
s  1 1.00
   2.4300000000E-02   1.0000000000E+00
s  1 1.00
   7.2900000000E-02   1.0000000000E+00
s  1 1.00
   2.1870000000E-01   1.0000000000E+00
s  1 1.00
   6.5610000000E-01   1.0000000000E+00
s  1 1.00
   1.9683000000E+00   1.0000000000E+00
p  1 1.00
   1.0000000000E-04   1.0000000000E+00
p  1 1.00
   3.0000000000E-04   1.0000000000E+00
p  1 1.00
   9.0000000000E-04   1.0000000000E+00
p  1 1.00
   2.7000000000E-03   1.0000000000E+00
d  1 1.00
   1.0000000000E-04   1.0000000000E+00
d  1 1.00
   3.0000000000E-04   1.0000000000E+00
 
 
[MO]
Ene=     4.25864E-04
Spin= Alpha
Occup=   1.0000000000
   1      -0.08230535
   2      -0.08976273
   3       0.18294057
   4       0.21561659
   5       0.20659960
   6       0.17187086
   7       0.10192867
   8      -0.08324880
   9      -0.00583275
  10       0.00010103
  11       0.04683052
  12      -0.00000000
  13      -0.00000000
  14      -0.00503346
  15      -0.00000000
  16       0.00000000
  17       0.02488734
  18       0.00000000
  19      -0.00000000
  20       0.19076620
  21      -0.00000000
  22       0.00000000
  23       0.02698173
  24       0.00879854
  25       0.00879854
  26      -0.00000000
  27      -0.00000000
  28       0.00000000
  29       0.04120273
  30       0.03145969
  31       0.03145969
  32      -0.00000000
  33       0.00000000
  34       0.00000000
  35      -0.08230535
  36      -0.08976273
  37       0.18294057
  38       0.21561659
  39       0.20659960
  40       0.17187086
  41       0.10192867
  42      -0.08324880
  43      -0.00583275
  44       0.00010103
  45      -0.04683052
  46       0.00000000
  47       0.00000000
  48       0.00503346
  49       0.00000000
  50      -0.00000000
  51      -0.02488734
  52      -0.00000000
  53       0.00000000
  54      -0.19076620
  55       0.00000000
  56      -0.00000000
  57       0.02698173
  58       0.00879854
  59       0.00879854
  60      -0.00000000
  61      -0.00000000
  62      -0.00000000
  63       0.04120273
  64       0.03145969
  65       0.03145969
  66      -0.00000000
  67       0.00000000
  68      -0.00000000
Ene=     9.03920E-04
Spin= Alpha
Occup=   0.0000000000
   1      -0.02157526
   2       1.40736446
   3      -0.00728598
   4       0.33241035
   5       0.21203676
   6       0.20341919
   7       0.11119268
   8      -0.09251617
   9      -0.00679570
  10       0.00015677
  11       0.02198386
  12       0.00000000
  13      -0.00000000
  14       0.74392821
  15      -0.00000000
  16       0.00000000
  17      -0.10713910
  18       0.00000000
  19      -0.00000000
  20       0.21845926
  21      -0.00000000
  22       0.00000000
  23       0.01945135
  24       0.01736894
  25       0.01736894
  26       0.00000000
  27      -0.00000000
  28      -0.00000000
  29       0.23686997
  30       0.04617521
  31       0.04617521
  32       0.00000000
  33      -0.00000000
  34       0.00000000
  35       0.02157526
  36      -1.40736446
  37       0.00728598
  38      -0.33241035
  39      -0.21203676
  40      -0.20341919
  41      -0.11119268
  42       0.09251617
  43       0.00679570
  44      -0.00015677
  45       0.02198386
  46      -0.00000000
  47       0.00000000
  48       0.74392821
  49       0.00000000
  50      -0.00000000
  51      -0.10713910
  52      -0.00000000
  53       0.00000000
  54       0.21845926
  55      -0.00000000
  56      -0.00000000
  57      -0.01945135
  58      -0.01736894
  59      -0.01736894
  60       0.00000000
  61      -0.00000000
  62       0.00000000
  63      -0.23686997
  64      -0.04617521
  65      -0.04617521
  66       0.00000000
  67       0.00000000
  68      -0.00000000
Ene=     5.41943E-03
Spin= Alpha
Occup=   0.0000000000
   1      -0.61496685
   2      -0.16338551
   3       0.93244010
   4      -0.58363959
   5      -0.10391811
   6      -0.15499244
   7      -0.06088373
   8       0.05508773
   9       0.00484723
  10      -0.00020444
  11       0.83061853
  12      -0.00000000
  13       0.00000000
  14      -0.28817546
  15       0.00000000
  16      -0.00000000
  17       0.49112933
  18      -0.00000000
  19       0.00000000
  20      -0.09415132
  21       0.00000000
  22       0.00000000
  23       0.39143399
  24       0.02928976
  25       0.02928976
  26      -0.00000000
  27       0.00000000
  28      -0.00000000
  29       0.01915520
  30       0.09547993
  31       0.09547993
  32      -0.00000000
  33      -0.00000000
  34       0.00000000
  35      -0.61496685
  36      -0.16338551
  37       0.93244010
  38      -0.58363959
  39      -0.10391811
  40      -0.15499244
  41      -0.06088373
  42       0.05508773
  43       0.00484723
  44      -0.00020444
  45      -0.83061853
  46       0.00000000
  47      -0.00000000
  48       0.28817546
  49      -0.00000000
  50       0.00000000
  51      -0.49112933
  52       0.00000000
  53       0.00000000
  54       0.09415132
  55      -0.00000000
  56       0.00000000
  57       0.39143399
  58       0.02928976
  59       0.02928976
  60      -0.00000000
  61       0.00000000
  62       0.00000000
  63       0.01915520
  64       0.09547993
  65       0.09547993
  66      -0.00000000
  67      -0.00000000
  68      -0.00000000
Ene=     1.15842E-02
Spin= Alpha
Occup=   0.0000000000
   1       0.01647977
   2      -4.18858703
   3       0.96009954
   4       0.32230441
   5      -0.59933418
   6      -0.07163938
   7      -0.09852741
   8       0.07000823
   9       0.00322899
  10       0.00016552
  11       0.09574556
  12      -0.00000000
  13       0.00000000
  14      -2.00605044
  15       0.00000000
  16      -0.00000000
  17       0.29230424
  18      -0.00000000
  19       0.00000000
  20       0.45496684
  21       0.00000000
  22      -0.00000000
  23       0.08429575
  24       0.06566548
  25       0.06566548
  26      -0.00000000
  27       0.00000000
  28       0.00000000
  29      -0.39198009
  30       0.12343360
  31       0.12343360
  32       0.00000000
  33      -0.00000000
  34      -0.00000000
  35      -0.01647977
  36       4.18858703
  37      -0.96009954
  38      -0.32230441
  39       0.59933418
  40       0.07163938
  41       0.09852741
  42      -0.07000823
  43      -0.00322899
  44      -0.00016552
  45       0.09574556
  46       0.00000000
  47      -0.00000000
  48      -2.00605044
  49      -0.00000000
  50       0.00000000
  51       0.29230424
  52       0.00000000
  53      -0.00000000
  54       0.45496684
  55      -0.00000000
  56       0.00000000
  57      -0.08429575
  58      -0.06566548
  59      -0.06566548
  60      -0.00000000
  61       0.00000000
  62      -0.00000000
  63       0.39198009
  64      -0.12343360
  65      -0.12343360
  66       0.00000000
  67      -0.00000000
  68       0.00000000
Ene=     1.21708E-02
Spin= Alpha
Occup=   0.0000000000
   1       0.00000000
   2      -0.00000000
   3       0.00000000
   4      -0.00000000
   5       0.00000000
   6      -0.00000000
   7       0.00000000
   8      -0.00000000
   9       0.00000000
  10      -0.00000000
  11      -0.00000000
  12       0.03493111
  13      -0.03341635
  14      -0.00000000
  15      -0.09317766
  16       0.08913707
  17       0.00000000
  18       0.31595892
  19      -0.30225756
  20      -0.00000000
  21       0.22538617
  22      -0.21561244
  23      -0.00000000
  24      -0.00000000
  25      -0.00000000
  26      -0.03499685
  27       0.03347923
  28      -0.00000000
  29      -0.00000000
  30      -0.00000000
  31      -0.00000000
  32       0.06159352
  33      -0.05892256
  34       0.00000000
  35      -0.00000000
  36       0.00000000
  37      -0.00000000
  38       0.00000000
  39      -0.00000000
  40       0.00000000
  41      -0.00000000
  42       0.00000000
  43      -0.00000000
  44       0.00000000
  45      -0.00000000
  46       0.03493111
  47      -0.03341635
  48      -0.00000000
  49      -0.09317766
  50       0.08913707
  51       0.00000000
  52       0.31595892
  53      -0.30225756
  54       0.00000000
  55       0.22538617
  56      -0.21561244
  57       0.00000000
  58       0.00000000
  59       0.00000000
  60       0.03499685
  61      -0.03347923
  62       0.00000000
  63       0.00000000
  64       0.00000000
  65       0.00000000
  66      -0.06159352
  67       0.05892256
  68      -0.00000000
Ene=     1.21708E-02
Spin= Alpha
Occup=   0.0000000000
   1      -0.00000000
   2       0.00000000
   3      -0.00000000
   4       0.00000000
   5      -0.00000000
   6       0.00000000
   7      -0.00000000
   8       0.00000000
   9      -0.00000000
  10       0.00000000
  11       0.00000000
  12      -0.03341635
  13      -0.03493111
  14       0.00000000
  15       0.08913707
  16       0.09317766
  17      -0.00000000
  18      -0.30225756
  19      -0.31595892
  20       0.00000000
  21      -0.21561244
  22      -0.22538617
  23       0.00000000
  24       0.00000000
  25       0.00000000
  26       0.03347923
  27       0.03499685
  28      -0.00000000
  29       0.00000000
  30       0.00000000
  31       0.00000000
  32      -0.05892256
  33      -0.06159352
  34       0.00000000
  35       0.00000000
  36      -0.00000000
  37       0.00000000
  38      -0.00000000
  39       0.00000000
  40      -0.00000000
  41       0.00000000
  42      -0.00000000
  43       0.00000000
  44      -0.00000000
  45      -0.00000000
  46      -0.03341635
  47      -0.03493111
  48       0.00000000
  49       0.08913707
  50       0.09317766
  51      -0.00000000
  52      -0.30225756
  53      -0.31595892
  54       0.00000000
  55      -0.21561244
  56      -0.22538617
  57       0.00000000
  58      -0.00000000
  59      -0.00000000
  60      -0.03347923
  61      -0.03499685
  62      -0.00000000
  63      -0.00000000
  64      -0.00000000
  65      -0.00000000
  66       0.05892256
  67       0.06159352
  68       0.00000000
Ene=     1.29432E-02
Spin= Alpha
Occup=   0.0000000000
   1      -0.06616420
   2      -0.32300605
   3      -0.34942106
   4       1.36351286
   5      -0.83379605
   6       0.03607116
   7      -0.10356840
   8       0.06207446
   9       0.00061387
  10       0.00046846
  11      -0.74656118
  12      -0.00000000
  13       0.00000000
  14       0.18543755
  15      -0.00000000
  16      -0.00000000
  17      -0.63824077
  18      -0.00000000
  19       0.00000000
  20       0.82143895
  21      -0.00000000
  22      -0.00000000
  23      -0.26055757
  24       0.06353195
  25       0.06353195
  26      -0.00000000
  27       0.00000000
  28      -0.00000000
  29       0.20696721
  30       0.20627780
  31       0.20627780
  32      -0.00000000
  33      -0.00000000
  34       0.00000000
  35      -0.06616420
  36      -0.32300605
  37      -0.34942106
  38       1.36351286
  39      -0.83379605
  40       0.03607116
  41      -0.10356840
  42       0.06207446
  43       0.00061387
  44       0.00046846
  45       0.74656118
  46       0.00000000
  47      -0.00000000
  48      -0.18543755
  49      -0.00000000
  50       0.00000000
  51       0.63824077
  52       0.00000000
  53      -0.00000000
  54      -0.82143895
  55      -0.00000000
  56       0.00000000
  57      -0.26055757
  58       0.06353195
  59       0.06353195
  60      -0.00000000
  61       0.00000000
  62       0.00000000
  63       0.20696721
  64       0.20627780
  65       0.20627780
  66      -0.00000000
  67      -0.00000000
  68      -0.00000000
Ene=     1.44133E-02
Spin= Alpha
Occup=   0.0000000000
   1      -0.00000000
   2      -0.00000000
   3      -0.00000000
   4       0.00000000
   5      -0.00000000
   6       0.00000000
   7      -0.00000000
   8       0.00000000
   9       0.00000000
  10      -0.00000000
  11       0.00000000
  12       0.04845001
  13      -0.03824879
  14      -0.00000000
  15      -0.06051141
  16       0.04777064
  17       0.00000000
  18      -0.00312232
  19       0.00246491
  20       0.00000000
  21      -0.56189129
  22       0.44358424
  23       0.00000000
  24      -0.00000000
  25      -0.00000000
  26       0.01645831
  27      -0.01299299
  28       0.00000000
  29      -0.00000000
  30      -0.00000000
  31      -0.00000000
  32      -0.03536732
  33       0.02792068
  34      -0.00000000
  35       0.00000000
  36       0.00000000
  37       0.00000000
  38      -0.00000000
  39       0.00000000
  40      -0.00000000
  41       0.00000000
  42      -0.00000000
  43      -0.00000000
  44       0.00000000
  45      -0.00000000
  46      -0.04845001
  47       0.03824879
  48      -0.00000000
  49       0.06051141
  50      -0.04777064
  51      -0.00000000
  52       0.00312232
  53      -0.00246491
  54       0.00000000
  55       0.56189129
  56      -0.44358424
  57       0.00000000
  58       0.00000000
  59       0.00000000
  60       0.01645831
  61      -0.01299299
  62       0.00000000
  63       0.00000000
  64       0.00000000
  65       0.00000000
  66      -0.03536732
  67       0.02792068
  68       0.00000000
Ene=     1.44133E-02
Spin= Alpha
Occup=   0.0000000000
   1      -0.00000000
   2       0.00000000
   3      -0.00000000
   4       0.00000000
   5      -0.00000000
   6       0.00000000
   7      -0.00000000
   8       0.00000000
   9      -0.00000000
  10       0.00000000
  11      -0.00000000
  12       0.03824879
  13       0.04845001
  14       0.00000000
  15      -0.04777064
  16      -0.06051141
  17      -0.00000000
  18      -0.00246491
  19      -0.00312232
  20       0.00000000
  21      -0.44358424
  22      -0.56189129
  23      -0.00000000
  24       0.00000000
  25       0.00000000
  26       0.01299299
  27       0.01645831
  28      -0.00000000
  29       0.00000000
  30       0.00000000
  31       0.00000000
  32      -0.02792068
  33      -0.03536732
  34       0.00000000
  35       0.00000000
  36      -0.00000000
  37       0.00000000
  38      -0.00000000
  39       0.00000000
  40      -0.00000000
  41       0.00000000
  42      -0.00000000
  43      -0.00000000
  44       0.00000000
  45       0.00000000
  46      -0.03824879
  47      -0.04845001
  48       0.00000000
  49       0.04777064
  50       0.06051141
  51      -0.00000000
  52       0.00246491
  53       0.00312232
  54       0.00000000
  55       0.44358424
  56       0.56189129
  57      -0.00000000
  58      -0.00000000
  59      -0.00000000
  60       0.01299299
  61       0.01645831
  62       0.00000000
  63      -0.00000000
  64      -0.00000000
  65      -0.00000000
  66      -0.02792068
  67      -0.03536732
  68       0.00000000
Ene=     1.81524E-02
Spin= Alpha
Occup=   0.0000000000
   1       0.16652164
   2     -16.31345300
   3       2.72166315
   4      -1.63990372
   5       0.56007559
   6      -0.05376000
   7       0.04995416
   8      -0.02639970
   9       0.00049950
  10      -0.00030834
  11       0.03142844
  12       0.00000000
  13       0.00000000
  14      -8.26407715
  15      -0.00000000
  16      -0.00000000
  17       1.64164187
  18      -0.00000000
  19       0.00000000
  20      -0.69585732
  21       0.00000000
  22      -0.00000000
  23       0.01233940
  24       0.01307910
  25       0.01307910
  26       0.00000000
  27       0.00000000
  28      -0.00000000
  29      -2.17393857
  30      -0.09199198
  31      -0.09199198
  32      -0.00000000
  33      -0.00000000
  34       0.00000000
  35      -0.16652164
  36      16.31345300
  37      -2.72166315
  38       1.63990372
  39      -0.56007559
  40       0.05376000
  41      -0.04995416
  42       0.02639970
  43      -0.00049950
  44       0.00030834
  45       0.03142844
  46      -0.00000000
  47      -0.00000000
  48      -8.26407715
  49       0.00000000
  50       0.00000000
  51       1.64164187
  52      -0.00000000
  53       0.00000000
  54      -0.69585732
  55       0.00000000
  56      -0.00000000
  57      -0.01233940
  58      -0.01307910
  59      -0.01307910
  60       0.00000000
  61       0.00000000
  62       0.00000000
  63       2.17393857
  64       0.09199198
  65       0.09199198
  66       0.00000000
  67      -0.00000000
  68      -0.00000000
Ene=     1.85940E-02
Spin= Alpha
Occup=   0.0000000000
   1      -0.00000000
   2       0.00000000
   3       0.00000000
   4      -0.00000000
   5       0.00000000
   6      -0.00000000
   7       0.00000000
   8      -0.00000000
   9       0.00000000
  10      -0.00000000
  11       0.00000000
  12       0.04177077
  13      -0.06402961
  14       0.00000000
  15      -0.11957210
  16       0.18328977
  17       0.00000000
  18       0.50736704
  19      -0.77773318
  20      -0.00000000
  21      -0.53432595
  22       0.81905797
  23       0.00000000
  24       0.00000000
  25       0.00000000
  26      -0.03588188
  27       0.05500264
  28      -0.00000000
  29       0.00000000
  30       0.00000000
  31       0.00000000
  32       0.06665126
  33      -0.10216843
  34       0.00000000
  35       0.00000000
  36      -0.00000000
  37      -0.00000000
  38       0.00000000
  39      -0.00000000
  40       0.00000000
  41      -0.00000000
  42       0.00000000
  43      -0.00000000
  44       0.00000000
  45       0.00000000
  46       0.04177077
  47      -0.06402961
  48       0.00000000
  49      -0.11957210
  50       0.18328977
  51       0.00000000
  52       0.50736704
  53      -0.77773318
  54      -0.00000000
  55      -0.53432595
  56       0.81905797
  57      -0.00000000
  58      -0.00000000
  59      -0.00000000
  60       0.03588188
  61      -0.05500264
  62       0.00000000
  63      -0.00000000
  64      -0.00000000
  65      -0.00000000
  66      -0.06665126
  67       0.10216843
  68      -0.00000000
Ene=     1.85940E-02
Spin= Alpha
Occup=   0.0000000000
   1       0.00000000
   2      -0.00000000
   3      -0.00000000
   4       0.00000000
   5      -0.00000000
   6       0.00000000
   7      -0.00000000
   8       0.00000000
   9      -0.00000000
  10       0.00000000
  11      -0.00000000
  12      -0.06402961
  13      -0.04177077
  14      -0.00000000
  15       0.18328977
  16       0.11957210
  17      -0.00000000
  18      -0.77773318
  19      -0.50736704
  20       0.00000000
  21       0.81905797
  22       0.53432595
  23      -0.00000000
  24      -0.00000000
  25      -0.00000000
  26       0.05500264
  27       0.03588188
  28      -0.00000000
  29      -0.00000000
  30      -0.00000000
  31      -0.00000000
  32      -0.10216843
  33      -0.06665126
  34       0.00000000
  35      -0.00000000
  36       0.00000000
  37       0.00000000
  38      -0.00000000
  39       0.00000000
  40      -0.00000000
  41       0.00000000
  42      -0.00000000
  43       0.00000000
  44       0.00000000
  45      -0.00000000
  46      -0.06402961
  47      -0.04177077
  48      -0.00000000
  49       0.18328977
  50       0.11957210
  51      -0.00000000
  52      -0.77773318
  53      -0.50736704
  54       0.00000000
  55       0.81905797
  56       0.53432595
  57       0.00000000
  58       0.00000000
  59       0.00000000
  60      -0.05500264
  61      -0.03588188
  62       0.00000000
  63       0.00000000
  64       0.00000000
  65       0.00000000
  66       0.10216843
  67       0.06665126
  68      -0.00000000
Ene=     2.22469E-02
Spin= Alpha
Occup=   0.0000000000
   1       0.35092544
   2       0.04788097
   3      -0.15648404
   4       1.01235138
   5      -0.66249790
   6      -0.02261976
   7      -0.06955130
   8       0.04628879
   9       0.00162013
  10       0.00018857
  11      -0.44902028
  12       0.00000000
  13       0.00000000
  14       0.12006645
  15      -0.00000000
  16      -0.00000000
  17      -0.18527662
  18       0.00000000
  19       0.00000000
  20      -0.31209052
  21      -0.00000000
  22      -0.00000000
  23      -0.21437918
  24      -0.01978999
  25      -0.01978999
  26       0.00000000
  27       0.00000000
  28       0.00000000
  29      -0.02972549
  30      -0.04688979
  31      -0.04688979
  32      -0.00000000
  33       0.00000000
  34      -0.00000000
  35       0.35092544
  36       0.04788097
  37      -0.15648404
  38       1.01235138
  39      -0.66249790
  40      -0.02261976
  41      -0.06955130
  42       0.04628879
  43       0.00162013
  44       0.00018857
  45       0.44902028
  46      -0.00000000
  47      -0.00000000
  48      -0.12006645
  49       0.00000000
  50       0.00000000
  51       0.18527662
  52      -0.00000000
  53      -0.00000000
  54       0.31209052
  55       0.00000000
  56       0.00000000
  57      -0.21437918
  58      -0.01978999
  59      -0.01978999
  60       0.00000000
  61       0.00000000
  62      -0.00000000
  63      -0.02972549
  64      -0.04688979
  65      -0.04688979
  66      -0.00000000
  67       0.00000000
  68       0.00000000
Ene=     2.41479E-02
Spin= Alpha
Occup=   0.0000000000
   1      -0.04225839
   2       4.79779787
   3      -1.55749672
   4       1.74771547
   5      -0.83624562
   6      -0.00851607
   7      -0.07820699
   8       0.05038292
   9       0.00144616
  10       0.00025119
  11      -0.03556999
  12      -0.00000000
  13      -0.00000000
  14       2.43546706
  15       0.00000000
  16       0.00000000
  17      -0.82391946
  18      -0.00000000
  19      -0.00000000
  20      -0.31738118
  21       0.00000000
  22       0.00000000
  23      -0.01646051
  24      -0.03071190
  25      -0.03071190
  26      -0.00000000
  27      -0.00000000
  28       0.00000000
  29       0.59519128
  30       0.01335253
  31       0.01335253
  32      -0.00000000
  33       0.00000000
  34      -0.00000000
  35       0.04225839
  36      -4.79779787
  37       1.55749672
  38      -1.74771547
  39       0.83624562
  40       0.00851607
  41       0.07820699
  42      -0.05038292
  43      -0.00144616
  44      -0.00025119
  45      -0.03556999
  46       0.00000000
  47       0.00000000
  48       2.43546706
  49      -0.00000000
  50      -0.00000000
  51      -0.82391946
  52       0.00000000
  53       0.00000000
  54      -0.31738118
  55      -0.00000000
  56      -0.00000000
  57       0.01646051
  58       0.03071190
  59       0.03071190
  60      -0.00000000
  61      -0.00000000
  62      -0.00000000
  63      -0.59519128
  64      -0.01335253
  65      -0.01335253
  66      -0.00000000
  67       0.00000000
  68       0.00000000
Ene=     2.48050E-02
Spin= Alpha
Occup=   0.0000000000
   1       0.00000000
   2      -0.00000000
   3      -0.00000000
   4       0.00000000
   5      -0.00000000
   6       0.00000000
   7      -0.00000000
   8       0.00000000
   9      -0.00000000
  10       0.00000000
  11      -0.00000000
  12       1.87101391
  13       2.08959442
  14      -0.00000000
  15      -0.48110646
  16      -0.53731155
  17       0.00000000
  18       1.00278388
  19       1.11993373
  20      -0.00000000
  21      -0.54287943
  22      -0.60630112
  23      -0.00000000
  24      -0.00000000
  25      -0.00000000
  26       0.44630092
  27       0.49843986
  28       0.00000000
  29      -0.00000000
  30      -0.00000000
  31      -0.00000000
  32      -0.05080867
  33      -0.05674438
  34       0.00000000
  35       0.00000000
  36       0.00000000
  37      -0.00000000
  38      -0.00000000
  39       0.00000000
  40      -0.00000000
  41       0.00000000
  42      -0.00000000
  43       0.00000000
  44      -0.00000000
  45       0.00000000
  46      -1.87101391
  47      -2.08959442
  48      -0.00000000
  49       0.48110646
  50       0.53731155
  51       0.00000000
  52      -1.00278388
  53      -1.11993373
  54      -0.00000000
  55       0.54287943
  56       0.60630112
  57      -0.00000000
  58       0.00000000
  59       0.00000000
  60       0.44630092
  61       0.49843986
  62      -0.00000000
  63       0.00000000
  64       0.00000000
  65       0.00000000
  66      -0.05080867
  67      -0.05674438
  68      -0.00000000
Ene=     2.48050E-02
Spin= Alpha
Occup=   0.0000000000
   1       0.00000000
   2       0.00000000
   3       0.00000000
   4      -0.00000000
   5       0.00000000
   6      -0.00000000
   7       0.00000000
   8      -0.00000000
   9      -0.00000000
  10       0.00000000
  11       0.00000000
  12      -2.08959442
  13       1.87101391
  14       0.00000000
  15       0.53731155
  16      -0.48110646
  17      -0.00000000
  18      -1.11993373
  19       1.00278388
  20       0.00000000
  21       0.60630112
  22      -0.54287943
  23      -0.00000000
  24       0.00000000
  25       0.00000000
  26      -0.49843986
  27       0.44630092
  28      -0.00000000
  29       0.00000000
  30       0.00000000
  31       0.00000000
  32       0.05674438
  33      -0.05080867
  34      -0.00000000
  35      -0.00000000
  36      -0.00000000
  37       0.00000000
  38      -0.00000000
  39       0.00000000
  40       0.00000000
  41      -0.00000000
  42       0.00000000
  43      -0.00000000
  44       0.00000000
  45       0.00000000
  46       2.08959442
  47      -1.87101391
  48       0.00000000
  49      -0.53731155
  50       0.48110646
  51      -0.00000000
  52       1.11993373
  53      -1.00278388
  54       0.00000000
  55      -0.60630112
  56       0.54287943
  57      -0.00000000
  58      -0.00000000
  59      -0.00000000
  60      -0.49843986
  61       0.44630092
  62       0.00000000
  63      -0.00000000
  64      -0.00000000
  65      -0.00000000
  66       0.05674438
  67      -0.05080867
  68      -0.00000000
Ene=     3.08590E-02
Spin= Alpha
Occup=   0.0000000000
   1       3.95873670
   2       0.87999280
   3      -1.66267722
   4       0.19779439
   5       0.06861776
   6      -0.03028498
   7       0.00999883
   8      -0.00315013
   9       0.00060882
  10      -0.00011470
  11      -3.61734508
  12       0.00000000
  13       0.00000000
  14       1.41526237
  15      -0.00000000
  16      -0.00000000
  17      -1.19061256
  18       0.00000000
  19       0.00000000
  20       0.77748867
  21      -0.00000000
  22      -0.00000000
  23      -1.95698633
  24      -0.31859242
  25      -0.31859242
  26       0.00000000
  27       0.00000000
  28      -0.00000000
  29      -0.26233005
  30      -0.90014685
  31      -0.90014685
  32      -0.00000000
  33      -0.00000000
  34       0.00000000
  35       3.95873670
  36       0.87999280
  37      -1.66267722
  38       0.19779439
  39       0.06861776
  40      -0.03028498
  41       0.00999883
  42      -0.00315013
  43       0.00060882
  44      -0.00011470
  45       3.61734508
  46      -0.00000000
  47      -0.00000000
  48      -1.41526237
  49       0.00000000
  50       0.00000000
  51       1.19061256
  52      -0.00000000
  53      -0.00000000
  54      -0.77748867
  55       0.00000000
  56       0.00000000
  57      -1.95698633
  58      -0.31859242
  59      -0.31859242
  60       0.00000000
  61       0.00000000
  62       0.00000000
  63      -0.26233005
  64      -0.90014685
  65      -0.90014685
  66      -0.00000000
  67      -0.00000000
  68      -0.00000000
Ene=     3.11188E-02
Spin= Alpha
Occup=   0.0000000000
   1      -3.97305164
   2      -2.40506993
   3       4.68871855
   4      -2.45777564
   5       0.74483718
   6       0.06177504
   7       0.04992614
   8      -0.03772683
   9      -0.00228681
  10      -0.00002133
  11       1.61261004
  12      -0.00000000
  13      -0.00000000
  14      -0.93577124
  15       0.00000000
  16       0.00000000
  17      -0.12466276
  18      -0.00000000
  19      -0.00000000
  20       0.08986022
  21       0.00000000
  22      -0.00000000
  23       1.21925321
  24       0.46807216
  25       0.46807216
  26      -0.00000000
  27      -0.00000000
  28      -0.00000000
  29       0.89409673
  30       1.47347567
  31       1.47347567
  32       0.00000000
  33       0.00000000
  34       0.00000000
  35      -3.97305164
  36      -2.40506993
  37       4.68871855
  38      -2.45777564
  39       0.74483718
  40       0.06177504
  41       0.04992614
  42      -0.03772683
  43      -0.00228681
  44      -0.00002133
  45      -1.61261004
  46       0.00000000
  47       0.00000000
  48       0.93577124
  49      -0.00000000
  50      -0.00000000
  51       0.12466276
  52       0.00000000
  53       0.00000000
  54      -0.08986022
  55      -0.00000000
  56       0.00000000
  57       1.21925321
  58       0.46807216
  59       0.46807216
  60      -0.00000000
  61      -0.00000000
  62       0.00000000
  63       0.89409673
  64       1.47347567
  65       1.47347567
  66       0.00000000
  67       0.00000000
  68      -0.00000000
Ene=     3.20828E-02
Spin= Alpha
Occup=   0.0000000000
   1       0.21637838
   2     -15.46297793
   3      -0.36142695
   4       0.84189611
   5      -0.36175429
   6       0.00809937
   7      -0.02783374
   8       0.01666499
   9       0.00022212
  10       0.00012082
  11      -0.16950374
  12       0.00000000