 Molden2AIM, Version 3.1.0 (02/25/2015)           Time: Thu Oct 17 19:54:50 2024
GAUSSIAN             68 MOL ORBITALS     68 PRIMITIVES        2 NUCLEI
  Be   1    (CENTRE  1)   0.00000000  0.00000000  0.00000000  CHARGE =  4.0
  Be   2    (CENTRE  2)  38.00000000  0.00000000  0.00000000  CHARGE =  4.0
CENTRE ASSIGNMENTS    1  1  1  1  1  1  1  1  1  1  1  1  1  1  1  1  1  1  1  1
CENTRE ASSIGNMENTS    1  1  1  1  1  1  1  1  1  1  1  1  1  1  2  2  2  2  2  2
CENTRE ASSIGNMENTS    2  2  2  2  2  2  2  2  2  2  2  2  2  2  2  2  2  2  2  2
CENTRE ASSIGNMENTS    2  2  2  2  2  2  2  2
TYPE ASSIGNMENTS      1  1  1  1  1  1  1  1  1  1  2  3  4  2  3  4  2  3  4  2
TYPE ASSIGNMENTS      3  4  5  6  7  8  9 10  5  6  7  8  9 10  1  1  1  1  1  1
TYPE ASSIGNMENTS      1  1  1  1  2  3  4  2  3  4  2  3  4  2  3  4  5  6  7  8
TYPE ASSIGNMENTS      9 10  5  6  7  8  9 10
EXPONENTS  0.1000000D-03 0.3000000D-03 0.9000000D-03 0.2700000D-02 0.8100000D-02
EXPONENTS  0.2430000D-01 0.7290000D-01 0.2187000D+00 0.6561000D+00 0.1968300D+01
EXPONENTS  0.1000000D-03 0.1000000D-03 0.1000000D-03 0.3000000D-03 0.3000000D-03
EXPONENTS  0.3000000D-03 0.9000000D-03 0.9000000D-03 0.9000000D-03 0.2700000D-02
EXPONENTS  0.2700000D-02 0.2700000D-02 0.1000000D-03 0.1000000D-03 0.1000000D-03
EXPONENTS  0.1000000D-03 0.1000000D-03 0.1000000D-03 0.3000000D-03 0.3000000D-03
EXPONENTS  0.3000000D-03 0.3000000D-03 0.3000000D-03 0.3000000D-03 0.1000000D-03
EXPONENTS  0.3000000D-03 0.9000000D-03 0.2700000D-02 0.8100000D-02 0.2430000D-01
EXPONENTS  0.7290000D-01 0.2187000D+00 0.6561000D+00 0.1968300D+01 0.1000000D-03
EXPONENTS  0.1000000D-03 0.1000000D-03 0.3000000D-03 0.3000000D-03 0.3000000D-03
EXPONENTS  0.9000000D-03 0.9000000D-03 0.9000000D-03 0.2700000D-02 0.2700000D-02
EXPONENTS  0.2700000D-02 0.1000000D-03 0.1000000D-03 0.1000000D-03 0.1000000D-03
EXPONENTS  0.1000000D-03 0.1000000D-03 0.3000000D-03 0.3000000D-03 0.3000000D-03
EXPONENTS  0.3000000D-03 0.3000000D-03 0.3000000D-03
MO    1     MO 0.0        OCC NO =    1.0000000  ORB. ENERGY =   -0.003861
 -0.28659177D-04  0.47179451D-04  0.48526610D-04  0.16739856D-02  0.57641556D-02
  0.86672091D-02  0.12251815D-01 -0.22563437D-01 -0.35169327D-02  0.11190884D-03
  0.18118423D-05  0.00000000D+00  0.00000000D+00 -0.23610889D-05  0.00000000D+00
  0.00000000D+00  0.75197691D-05 -0.00000000D+00 -0.00000000D+00  0.20403359D-04
  0.00000000D+00  0.00000000D+00  0.68502121D-08 -0.20178849D-09 -0.20178849D-09
  0.00000000D+00  0.00000000D+00 -0.00000000D+00 -0.25396996D-07 -0.54773730D-08
 -0.54773730D-08  0.00000000D+00  0.00000000D+00  0.00000000D+00 -0.28659177D-04
  0.47179451D-04  0.48526610D-04  0.16739856D-02  0.57641556D-02  0.86672091D-02
  0.12251815D-01 -0.22563437D-01 -0.35169327D-02  0.11190884D-03 -0.18118423D-05
 -0.00000000D+00 -0.00000000D+00  0.23610889D-05 -0.00000000D+00 -0.00000000D+00
 -0.75197691D-05  0.00000000D+00  0.00000000D+00 -0.20403359D-04 -0.00000000D+00
  0.00000000D+00  0.68502121D-08 -0.20178849D-09 -0.20178849D-09  0.00000000D+00
  0.00000000D+00  0.00000000D+00 -0.25396996D-07 -0.54773730D-08 -0.54773730D-08
  0.00000000D+00  0.00000000D+00 -0.00000000D+00
MO    2     MO 0.0        OCC NO =    0.0000000  ORB. ENERGY =   -0.003546
 -0.45144903D-06 -0.54051337D-05 -0.45748300D-04 -0.22394968D-02 -0.55121371D-02
 -0.94664943D-02 -0.12417970D-01  0.23242881D-01  0.37785427D-02 -0.16573737D-03
  0.39956264D-07  0.00000000D+00  0.00000000D+00  0.43597967D-06 -0.00000000D+00
  0.00000000D+00 -0.56342435D-05  0.00000000D+00 -0.00000000D+00 -0.46209361D-04
 -0.00000000D+00  0.00000000D+00  0.76791844D-09  0.19399669D-09  0.19399669D-09
  0.00000000D+00  0.00000000D+00  0.00000000D+00  0.88390613D-08  0.12799225D-07
  0.12799225D-07 -0.00000000D+00  0.00000000D+00 -0.00000000D+00  0.45144903D-06
  0.54051337D-05  0.45748300D-04  0.22394968D-02  0.55121371D-02  0.94664943D-02
  0.12417970D-01 -0.23242881D-01 -0.37785427D-02  0.16573737D-03  0.39956264D-07
 -0.00000000D+00 -0.00000000D+00  0.43597967D-06  0.00000000D+00 -0.00000000D+00
 -0.56342435D-05 -0.00000000D+00  0.00000000D+00 -0.46209361D-04  0.00000000D+00
 -0.00000000D+00 -0.76791844D-09 -0.19399669D-09 -0.19399669D-09  0.00000000D+00
  0.00000000D+00 -0.00000000D+00 -0.88390613D-08 -0.12799225D-07 -0.12799225D-07
 -0.00000000D+00  0.00000000D+00  0.00000000D+00
MO    3     MO 0.0        OCC NO =    0.0000000  ORB. ENERGY =    0.004223
 -0.47757033D-03 -0.12344080D-03  0.37482898D-02 -0.54806092D-02 -0.11799744D-02
 -0.49749090D-02 -0.37514496D-02  0.81057688D-02  0.17616643D-02 -0.19753705D-03
  0.18396426D-04 -0.00000000D+00 -0.00000000D+00 -0.22838697D-04  0.00000000D+00
 -0.00000000D+00  0.10470001D-03 -0.00000000D+00 -0.00000000D+00 -0.39413567D-04
  0.00000000D+00  0.00000000D+00  0.75046267D-07  0.42832244D-08  0.42832244D-08
 -0.00000000D+00 -0.00000000D+00  0.00000000D+00 -0.68739178D-07  0.99960920D-07
  0.99960920D-07  0.00000000D+00 -0.00000000D+00 -0.00000000D+00 -0.47757033D-03
 -0.12344080D-03  0.37482898D-02 -0.54806092D-02 -0.11799744D-02 -0.49749090D-02
 -0.37514496D-02  0.81057688D-02  0.17616643D-02 -0.19753705D-03 -0.18396426D-04
  0.00000000D+00  0.00000000D+00  0.22838697D-04 -0.00000000D+00  0.00000000D+00
 -0.10470001D-03  0.00000000D+00  0.00000000D+00  0.39413567D-04 -0.00000000D+00
 -0.00000000D+00  0.75046267D-07  0.42832244D-08  0.42832244D-08 -0.00000000D+00
 -0.00000000D+00 -0.00000000D+00 -0.68739178D-07  0.99960920D-07  0.99960920D-07
  0.00000000D+00 -0.00000000D+00  0.00000000D+00
MO    4     MO 0.0        OCC NO =    0.0000000  ORB. ENERGY =    0.006412
 -0.00000000D+00 -0.00000000D+00  0.00000000D+00 -0.00000000D+00 -0.00000000D+00
  0.00000000D+00 -0.00000000D+00  0.00000000D+00 -0.00000000D+00 -0.00000000D+00
  0.00000000D+00  0.19422122D-06  0.34484611D-06  0.00000000D+00 -0.23377829D-05
 -0.41508098D-05 -0.00000000D+00  0.31793528D-04  0.56450440D-04  0.00000000D+00
  0.17836662D-03  0.31669572D-03  0.00000000D+00  0.00000000D+00  0.00000000D+00
 -0.16029886D-08 -0.28461579D-08 -0.00000000D+00  0.00000000D+00  0.00000000D+00
  0.00000000D+00  0.35284871D-07  0.62649442D-07 -0.00000000D+00 -0.00000000D+00
 -0.00000000D+00 -0.00000000D+00  0.00000000D+00 -0.00000000D+00  0.00000000D+00
 -0.00000000D+00 -0.00000000D+00  0.00000000D+00 -0.00000000D+00 -0.00000000D+00
  0.19422122D-06  0.34484611D-06 -0.00000000D+00 -0.23377829D-05 -0.41508098D-05
 -0.00000000D+00  0.31793528D-04  0.56450440D-04 -0.00000000D+00  0.17836662D-03
  0.31669572D-03  0.00000000D+00 -0.00000000D+00 -0.00000000D+00  0.16029886D-08
  0.28461579D-08  0.00000000D+00 -0.00000000D+00 -0.00000000D+00 -0.00000000D+00
 -0.35284871D-07 -0.62649442D-07  0.00000000D+00
MO    5     MO 0.0        OCC NO =    0.0000000  ORB. ENERGY =    0.006412
 -0.00000000D+00  0.00000000D+00 -0.00000000D+00 -0.00000000D+00  0.00000000D+00
  0.00000000D+00 -0.00000000D+00  0.00000000D+00 -0.00000000D+00  0.00000000D+00
  0.00000000D+00 -0.34484611D-06  0.19422122D-06 -0.00000000D+00  0.41508098D-05
 -0.23377829D-05 -0.00000000D+00 -0.56450440D-04  0.31793528D-04 -0.00000000D+00
 -0.31669572D-03  0.17836662D-03  0.00000000D+00 -0.00000000D+00  0.00000000D+00
  0.28461579D-08 -0.16029886D-08 -0.00000000D+00 -0.00000000D+00 -0.00000000D+00
 -0.00000000D+00 -0.62649442D-07  0.35284871D-07  0.00000000D+00 -0.00000000D+00
  0.00000000D+00 -0.00000000D+00  0.00000000D+00 -0.00000000D+00  0.00000000D+00
 -0.00000000D+00 -0.00000000D+00  0.00000000D+00 -0.00000000D+00 -0.00000000D+00
 -0.34484611D-06  0.19422122D-06  0.00000000D+00  0.41508098D-05 -0.23377829D-05
 -0.00000000D+00 -0.56450440D-04  0.31793528D-04  0.00000000D+00 -0.31669572D-03
  0.17836662D-03  0.00000000D+00 -0.00000000D+00 -0.00000000D+00 -0.28461579D-08
  0.16029886D-08  0.00000000D+00 -0.00000000D+00 -0.00000000D+00 -0.00000000D+00
  0.62649442D-07 -0.35284871D-07 -0.00000000D+00
MO    6     MO 0.0        OCC NO =    0.0000000  ORB. ENERGY =    0.008765
 -0.00000000D+00  0.00000000D+00 -0.00000000D+00 -0.00000000D+00  0.00000000D+00
 -0.00000000D+00  0.00000000D+00 -0.00000000D+00 -0.00000000D+00  0.00000000D+00
 -0.00000000D+00  0.22207043D-05  0.11621782D-05  0.00000000D+00  0.15274591D-05
  0.79937711D-06 -0.00000000D+00  0.10822159D-04  0.56636428D-05 -0.00000000D+00
  0.57315265D-03  0.29995235D-03 -0.00000000D+00 -0.00000000D+00 -0.00000000D+00
  0.76994741D-08  0.40294229D-08  0.00000000D+00  0.00000000D+00 -0.00000000D+00
 -0.00000000D+00  0.37393183D-07  0.19569254D-07 -0.00000000D+00  0.00000000D+00
 -0.00000000D+00  0.00000000D+00 -0.00000000D+00  0.00000000D+00  0.00000000D+00
 -0.00000000D+00  0.00000000D+00 -0.00000000D+00  0.00000000D+00 -0.00000000D+00
 -0.22207043D-05 -0.11621782D-05  0.00000000D+00 -0.15274591D-05 -0.79937711D-06
 -0.00000000D+00 -0.10822159D-04 -0.56636428D-05  0.00000000D+00 -0.57315265D-03
 -0.29995235D-03  0.00000000D+00  0.00000000D+00  0.00000000D+00  0.76994741D-08
  0.40294229D-08 -0.00000000D+00 -0.00000000D+00  0.00000000D+00  0.00000000D+00
  0.37393183D-07  0.19569254D-07  0.00000000D+00
MO    7     MO 0.0        OCC NO =    0.0000000  ORB. ENERGY =    0.008765
 -0.00000000D+00 -0.00000000D+00  0.00000000D+00  0.00000000D+00 -0.00000000D+00
 -0.00000000D+00 -0.00000000D+00  0.00000000D+00 -0.00000000D+00  0.00000000D+00
 -0.00000000D+00 -0.11621782D-05  0.22207043D-05 -0.00000000D+00 -0.79937711D-06
  0.15274591D-05  0.00000000D+00 -0.56636428D-05  0.10822159D-04  0.00000000D+00
 -0.29995235D-03  0.57315265D-03 -0.00000000D+00  0.00000000D+00 -0.00000000D+00
 -0.40294229D-08  0.76994741D-08 -0.00000000D+00 -0.00000000D+00  0.00000000D+00
  0.00000000D+00 -0.19569254D-07  0.37393183D-07  0.00000000D+00  0.00000000D+00
  0.00000000D+00 -0.00000000D+00  0.00000000D+00  0.00000000D+00 -0.00000000D+00
  0.00000000D+00 -0.00000000D+00  0.00000000D+00 -0.00000000D+00  0.00000000D+00
  0.11621782D-05 -0.22207043D-05 -0.00000000D+00  0.79937711D-06 -0.15274591D-05
  0.00000000D+00  0.56636428D-05 -0.10822159D-04 -0.00000000D+00  0.29995235D-03
 -0.57315265D-03 -0.00000000D+00  0.00000000D+00  0.00000000D+00 -0.40294229D-08
  0.76994741D-08 -0.00000000D+00  0.00000000D+00  0.00000000D+00  0.00000000D+00
 -0.19569254D-07  0.37393183D-07  0.00000000D+00
MO    8     MO 0.0        OCC NO =    0.0000000  ORB. ENERGY =    0.009506
  0.21164088D-04 -0.39848609D-06 -0.90128031D-02 -0.16642837D-02  0.10932667D-01
  0.95889294D-03  0.80911773D-02 -0.12182395D-01 -0.88329226D-03 -0.28145980D-03
 -0.20228230D-05  0.00000000D+00  0.00000000D+00  0.11999453D-05 -0.00000000D+00
 -0.00000000D+00 -0.20819220D-03  0.00000000D+00 -0.00000000D+00 -0.30564396D-03
 -0.00000000D+00  0.00000000D+00 -0.17679199D-07 -0.29595043D-07 -0.29595043D-07
  0.00000000D+00  0.00000000D+00 -0.00000000D+00 -0.29618052D-06 -0.14179396D-06
 -0.14179396D-06 -0.00000000D+00 -0.00000000D+00 -0.00000000D+00 -0.21164088D-04
  0.39848609D-06  0.90128031D-02  0.16642837D-02 -0.10932667D-01 -0.95889294D-03
 -0.80911773D-02  0.12182395D-01  0.88329226D-03  0.28145980D-03 -0.20228230D-05
 -0.00000000D+00 -0.00000000D+00  0.11999453D-05  0.00000000D+00  0.00000000D+00
 -0.20819220D-03 -0.00000000D+00 -0.00000000D+00 -0.30564396D-03  0.00000000D+00
 -0.00000000D+00  0.17679199D-07  0.29595043D-07  0.29595043D-07  0.00000000D+00
  0.00000000D+00  0.00000000D+00  0.29618052D-06  0.14179396D-06  0.14179396D-06
 -0.00000000D+00 -0.00000000D+00 -0.00000000D+00
MO    9     MO 0.0        OCC NO =    0.0000000  ORB. ENERGY =    0.009825
 -0.27853167D-03  0.45408163D-03  0.18443550D-02 -0.91130352D-02  0.10758862D-01
 -0.23189738D-02  0.63812266D-02 -0.79853798D-02  0.19381752D-03 -0.43530634D-03
  0.20661331D-04 -0.00000000D+00 -0.00000000D+00 -0.22238454D-04 -0.00000000D+00
  0.00000000D+00  0.12041685D-03 -0.00000000D+00  0.00000000D+00 -0.64210180D-03
 -0.00000000D+00  0.00000000D+00  0.76026554D-07 -0.38946401D-08 -0.38946401D-08
 -0.00000000D+00 -0.00000000D+00  0.00000000D+00 -0.25089768D-06 -0.91726750D-07
 -0.91726750D-07 -0.00000000D+00  0.00000000D+00  0.00000000D+00 -0.27853167D-03
  0.45408163D-03  0.18443550D-02 -0.91130352D-02  0.10758862D-01 -0.23189738D-02
  0.63812266D-02 -0.79853798D-02  0.19381752D-03 -0.43530634D-03 -0.20661331D-04
  0.00000000D+00  0.00000000D+00  0.22238454D-04  0.00000000D+00 -0.00000000D+00
 -0.12041685D-03  0.00000000D+00 -0.00000000D+00  0.64210180D-03  0.00000000D+00
 -0.00000000D+00  0.76026554D-07 -0.38946401D-08 -0.38946401D-08 -0.00000000D+00
  0.00000000D+00  0.00000000D+00 -0.25089768D-06 -0.91726750D-07 -0.91726750D-07
 -0.00000000D+00  0.00000000D+00 -0.00000000D+00
MO   10     MO 0.0        OCC NO =    0.0000000  ORB. ENERGY =    0.013635
 -0.00000000D+00 -0.00000000D+00  0.00000000D+00 -0.00000000D+00  0.00000000D+00
 -0.00000000D+00  0.00000000D+00 -0.00000000D+00  0.00000000D+00  0.00000000D+00
  0.00000000D+00  0.10079000D-05  0.12715621D-06 -0.00000000D+00 -0.12950037D-04
 -0.16337712D-05 -0.00000000D+00  0.21598783D-03  0.27248932D-04  0.00000000D+00
 -0.81624512D-03 -0.10297713D-03  0.00000000D+00  0.00000000D+00  0.00000000D+00
 -0.50056099D-08 -0.63150551D-09  0.00000000D+00  0.00000000D+00  0.00000000D+00
  0.00000000D+00  0.15546116D-06  0.19612905D-07 -0.00000000D+00 -0.00000000D+00
 -0.00000000D+00  0.00000000D+00 -0.00000000D+00  0.00000000D+00 -0.00000000D+00
  0.00000000D+00 -0.00000000D+00 -0.00000000D+00  0.00000000D+00 -0.00000000D+00
  0.10079000D-05  0.12715621D-06  0.00000000D+00 -0.12950037D-04 -0.16337712D-05
 -0.00000000D+00  0.21598783D-03  0.27248932D-04  0.00000000D+00 -0.81624512D-03
 -0.10297713D-03  0.00000000D+00 -0.00000000D+00 -0.00000000D+00  0.50056099D-08
  0.63150551D-09 -0.00000000D+00 -0.00000000D+00 -0.00000000D+00 -0.00000000D+00
 -0.15546116D-06 -0.19612905D-07  0.00000000D+00
MO   11     MO 0.0        OCC NO =    0.0000000  ORB. ENERGY =    0.013635
  0.00000000D+00  0.00000000D+00 -0.00000000D+00  0.00000000D+00 -0.00000000D+00
  0.00000000D+00 -0.00000000D+00  0.00000000D+00 -0.00000000D+00 -0.00000000D+00
 -0.00000000D+00  0.12715621D-06 -0.10079000D-05 -0.00000000D+00 -0.16337712D-05
  0.12950037D-04 -0.00000000D+00  0.27248932D-04 -0.21598783D-03 -0.00000000D+00
 -0.10297713D-03  0.81624512D-03 -0.00000000D+00  0.00000000D+00  0.00000000D+00
 -0.63150551D-09  0.50056099D-08 -0.00000000D+00  0.00000000D+00  0.00000000D+00
  0.00000000D+00  0.19612905D-07 -0.15546116D-06  0.00000000D+00  0.00000000D+00
  0.00000000D+00 -0.00000000D+00  0.00000000D+00 -0.00000000D+00  0.00000000D+00
 -0.00000000D+00  0.00000000D+00 -0.00000000D+00  0.00000000D+00  0.00000000D+00
  0.12715621D-06 -0.10079000D-05  0.00000000D+00 -0.16337712D-05  0.12950037D-04
  0.00000000D+00  0.27248932D-04 -0.21598783D-03  0.00000000D+00 -0.10297713D-03
  0.81624512D-03 -0.00000000D+00 -0.00000000D+00 -0.00000000D+00  0.63150551D-09
 -0.50056099D-08 -0.00000000D+00 -0.00000000D+00 -0.00000000D+00 -0.00000000D+00
 -0.19612905D-07  0.15546116D-06 -0.00000000D+00
MO   12     MO 0.0        OCC NO =    0.0000000  ORB. ENERGY =    0.014088
  0.12756438D-03 -0.15996999D-03 -0.10750776D-02  0.12388758D-01 -0.16853287D-01
 -0.44678221D-03 -0.95749291D-02  0.14065740D-01  0.89196895D-03  0.36990676D-03
 -0.10726771D-04  0.00000000D+00 -0.00000000D+00  0.58446328D-05 -0.00000000D+00
  0.00000000D+00 -0.67853273D-04  0.00000000D+00  0.00000000D+00 -0.17535063D-03
 -0.00000000D+00 -0.00000000D+00 -0.38324874D-07  0.24305062D-08  0.24305062D-08
  0.00000000D+00 -0.00000000D+00  0.00000000D+00  0.67442288D-07  0.62493133D-07
  0.62493133D-07  0.00000000D+00  0.00000000D+00 -0.00000000D+00  0.12756438D-03
 -0.15996999D-03 -0.10750776D-02  0.12388758D-01 -0.16853287D-01 -0.44678221D-03
 -0.95749291D-02  0.14065740D-01  0.89196895D-03  0.36990676D-03  0.10726771D-04
 -0.00000000D+00  0.00000000D+00 -0.58446328D-05  0.00000000D+00 -0.00000000D+00
  0.67853273D-04 -0.00000000D+00  0.00000000D+00  0.17535063D-03 -0.00000000D+00
 -0.00000000D+00 -0.38324874D-07  0.24305062D-08  0.24305062D-08  0.00000000D+00
 -0.00000000D+00 -0.00000000D+00  0.67442288D-07  0.62493133D-07  0.62493133D-07
  0.00000000D+00  0.00000000D+00  0.00000000D+00
MO   13     MO 0.0        OCC NO =    0.0000000  ORB. ENERGY =    0.014577
  0.86733191D-05  0.68404018D-04  0.64325281D-03 -0.18293904D-02  0.17213768D-02
 -0.30850632D-02  0.27917955D-03  0.12020074D-02  0.85301736D-03 -0.21947114D-03
 -0.78465123D-06 -0.00000000D+00 -0.00000000D+00 -0.46401661D-05  0.00000000D+00
  0.00000000D+00  0.69219678D-04 -0.00000000D+00 -0.00000000D+00 -0.91749729D-03
  0.00000000D+00  0.00000000D+00 -0.12409035D-07 -0.69418604D-08 -0.69418604D-08
 -0.00000000D+00 -0.00000000D+00  0.00000000D+00 -0.14116061D-06 -0.17150338D-06
 -0.17150338D-06  0.00000000D+00  0.00000000D+00 -0.00000000D+00 -0.86733191D-05
 -0.68404018D-04 -0.64325281D-03  0.18293904D-02 -0.17213768D-02  0.30850632D-02
 -0.27917955D-03 -0.12020074D-02 -0.85301736D-03  0.21947114D-03 -0.78465123D-06
  0.00000000D+00  0.00000000D+00 -0.46401661D-05 -0.00000000D+00 -0.00000000D+00
  0.69219678D-04  0.00000000D+00  0.00000000D+00 -0.91749729D-03 -0.00000000D+00
 -0.00000000D+00  0.12409035D-07  0.69418604D-08  0.69418604D-08 -0.00000000D+00
 -0.00000000D+00 -0.00000000D+00  0.14116061D-06  0.17150338D-06  0.17150338D-06
  0.00000000D+00  0.00000000D+00  0.00000000D+00
MO   14     MO 0.0        OCC NO =    0.0000000  ORB. ENERGY =    0.018197
  0.13624855D-04 -0.86944425D-04 -0.16406947D-01  0.23181231D-01 -0.22993083D-01
  0.20059385D-02 -0.10764073D-01  0.14500436D-01  0.31877225D-03  0.57847007D-03
 -0.13690877D-05  0.00000000D+00 -0.00000000D+00  0.56568611D-05 -0.00000000D+00
  0.00000000D+00 -0.42365820D-03  0.00000000D+00 -0.00000000D+00  0.16423496D-03
 -0.00000000D+00  0.00000000D+00 -0.44735490D-08 -0.25739870D-07 -0.25739870D-07
  0.00000000D+00 -0.00000000D+00 -0.00000000D+00 -0.19350950D-06  0.38144220D-07
  0.38144220D-07 -0.00000000D+00  0.00000000D+00  0.00000000D+00 -0.13624855D-04
  0.86944425D-04  0.16406947D-01 -0.23181231D-01  0.22993083D-01 -0.20059385D-02
  0.10764073D-01 -0.14500436D-01 -0.31877225D-03 -0.57847007D-03 -0.13690877D-05
 -0.00000000D+00  0.00000000D+00  0.56568611D-05  0.00000000D+00 -0.00000000D+00
 -0.42365820D-03 -0.00000000D+00  0.00000000D+00  0.16423496D-03  0.00000000D+00
 -0.00000000D+00  0.44735490D-08  0.25739870D-07  0.25739870D-07  0.00000000D+00
 -0.00000000D+00  0.00000000D+00  0.19350950D-06 -0.38144220D-07 -0.38144220D-07
 -0.00000000D+00  0.00000000D+00 -0.00000000D+00
MO   15     MO 0.0        OCC NO =    0.0000000  ORB. ENERGY =    0.020039
 -0.00000000D+00 -0.00000000D+00 -0.00000000D+00  0.00000000D+00 -0.00000000D+00
 -0.00000000D+00 -0.00000000D+00  0.00000000D+00 -0.00000000D+00  0.00000000D+00
 -0.00000000D+00  0.86097657D-06  0.97754595D-04 -0.00000000D+00 -0.75426435D-06
 -0.85638551D-04 -0.00000000D+00  0.33774024D-05  0.38346755D-03  0.00000000D+00
 -0.63734478D-05 -0.72363599D-03 -0.00000000D+00  0.00000000D+00  0.00000000D+00
  0.32206276D-08  0.36566748D-06  0.00000000D+00 -0.00000000D+00  0.00000000D+00
  0.00000000D+00 -0.51574901D-08 -0.58557779D-06 -0.00000000D+00  0.00000000D+00
  0.00000000D+00  0.00000000D+00 -0.00000000D+00  0.00000000D+00 -0.00000000D+00
  0.00000000D+00 -0.00000000D+00 -0.00000000D+00  0.00000000D+00  0.00000000D+00
 -0.86097657D-06 -0.97754595D-04 -0.00000000D+00  0.75426435D-06  0.85638551D-04
 -0.00000000D+00 -0.33774024D-05 -0.38346755D-03 -0.00000000D+00  0.63734478D-05
  0.72363599D-03 -0.00000000D+00 -0.00000000D+00 -0.00000000D+00  0.32206276D-08
  0.36566748D-06 -0.00000000D+00  0.00000000D+00 -0.00000000D+00 -0.00000000D+00
 -0.51574901D-08 -0.58557779D-06  0.00000000D+00
MO   16     MO 0.0        OCC NO =    0.0000000  ORB. ENERGY =    0.020039
 -0.00000000D+00  0.00000000D+00  0.00000000D+00 -0.00000000D+00  0.00000000D+00
  0.00000000D+00  0.00000000D+00 -0.00000000D+00 -0.00000000D+00 -0.00000000D+00
 -0.00000000D+00  0.97754595D-04 -0.86097657D-06  0.00000000D+00 -0.85638551D-04
  0.75426435D-06  0.00000000D+00  0.38346755D-03 -0.33774024D-05  0.00000000D+00
 -0.72363599D-03  0.63734478D-05 -0.00000000D+00  0.00000000D+00 -0.00000000D+00
  0.36566748D-06 -0.32206276D-08 -0.00000000D+00  0.00000000D+00 -0.00000000D+00
 -0.00000000D+00 -0.58557779D-06  0.51574901D-08  0.00000000D+00  0.00000000D+00
 -0.00000000D+00 -0.00000000D+00  0.00000000D+00 -0.00000000D+00  0.00000000D+00
 -0.00000000D+00  0.00000000D+00 -0.00000000D+00  0.00000000D+00  0.00000000D+00
 -0.97754595D-04  0.86097657D-06  0.00000000D+00  0.85638551D-04 -0.75426435D-06
  0.00000000D+00 -0.38346755D-03  0.33774024D-05 -0.00000000D+00  0.72363599D-03
 -0.63734478D-05 -0.00000000D+00 -0.00000000D+00 -0.00000000D+00  0.36566748D-06
 -0.32206276D-08  0.00000000D+00 -0.00000000D+00  0.00000000D+00  0.00000000D+00
 -0.58557779D-06  0.51574901D-08 -0.00000000D+00
MO   17     MO 0.0        OCC NO =    0.0000000  ORB. ENERGY =    0.024852
  0.88643691D-03 -0.23373621D-02  0.67379576D-02 -0.10388693D-01  0.83384848D-02
  0.19983736D-02  0.31360994D-02 -0.55313348D-02 -0.80931178D-03 -0.16225539D-05
 -0.62677533D-04  0.00000000D+00  0.00000000D+00  0.65579242D-04 -0.00000000D+00
 -0.00000000D+00 -0.26850730D-03  0.00000000D+00 -0.00000000D+00  0.54951423D-03
  0.00000000D+00  0.00000000D+00 -0.23418840D-06  0.10140971D-07  0.10140971D-07
  0.00000000D+00  0.00000000D+00  0.00000000D+00  0.85722352D-06  0.34552202D-06
  0.34552202D-06 -0.00000000D+00 -0.00000000D+00 -0.00000000D+00  0.88643691D-03
 -0.23373621D-02  0.67379576D-02 -0.10388693D-01  0.83384848D-02  0.19983736D-02
  0.31360994D-02 -0.55313348D-02 -0.80931178D-03 -0.16225539D-05  0.62677533D-04
 -0.00000000D+00 -0.00000000D+00 -0.65579242D-04  0.00000000D+00  0.00000000D+00
  0.26850730D-03 -0.00000000D+00  0.00000000D+00 -0.54951423D-03 -0.00000000D+00
 -0.00000000D+00 -0.23418840D-06  0.10140971D-07  0.10140971D-07  0.00000000D+00
  0.00000000D+00 -0.00000000D+00  0.85722352D-06  0.34552202D-06  0.34552202D-06
 -0.00000000D+00 -0.00000000D+00  0.00000000D+00
MO   18     MO 0.0        OCC NO =    0.0000000  ORB. ENERGY =    0.027068
  0.47393096D-04  0.56009336D-03  0.56959942D-02  0.22840887D-02 -0.20050713D-02
 -0.12532933D-02 -0.81183026D-03  0.17709486D-02  0.38175359D-03 -0.38266216D-04
 -0.42193120D-05 -0.00000000D+00 -0.00000000D+00 -0.41332579D-04  0.00000000D+00
  0.00000000D+00  0.72380811D-03 -0.00000000D+00 -0.00000000D+00 -0.70281997D-03
  0.00000000D+00 -0.00000000D+00 -0.76375910D-07 -0.29800003D-07 -0.29800003D-07
 -0.00000000D+00 -0.00000000D+00  0.00000000D+00 -0.91393049D-06 -0.11756749D-05
 -0.11756749D-05  0.00000000D+00  0.00000000D+00 -0.00000000D+00 -0.47393096D-04
 -0.56009336D-03 -0.56959942D-02 -0.22840887D-02  0.20050713D-02  0.12532933D-02
  0.81183026D-03 -0.17709486D-02 -0.38175359D-03  0.38266216D-04 -0.42193120D-05
  0.00000000D+00  0.00000000D+00 -0.41332579D-04 -0.00000000D+00 -0.00000000D+00
  0.72380811D-03  0.00000000D+00  0.00000000D+00 -0.70281997D-03 -0.00000000D+00
  0.00000000D+00  0.76375910D-07  0.29800003D-07  0.29800003D-07 -0.00000000D+00
 -0.00000000D+00 -0.00000000D+00  0.91393049D-06  0.11756749D-05  0.11756749D-05
  0.00000000D+00  0.00000000D+00  0.00000000D+00
MO   19     MO 0.0        OCC NO =    0.0000000  ORB. ENERGY =    0.029606
 -0.37858032D-02 -0.37596530D-02  0.17730629D-01 -0.17763678D-01  0.84526742D-02
  0.49933848D-02  0.20221269D-02 -0.54635333D-02 -0.15577309D-02  0.23973530D-03
  0.64036478D-04 -0.00000000D+00 -0.00000000D+00 -0.12219080D-03  0.00000000D+00
  0.00000000D+00  0.85502870D-04 -0.00000000D+00 -0.00000000D+00 -0.21521905D-03
  0.00000000D+00  0.00000000D+00  0.34055456D-06  0.88247681D-07  0.88247681D-07
 -0.00000000D+00 -0.00000000D+00 -0.00000000D+00  0.69140012D-06  0.18873802D-05
  0.18873802D-05  0.00000000D+00  0.00000000D+00  0.00000000D+00 -0.37858032D-02
 -0.37596530D-02  0.17730629D-01 -0.17763678D-01  0.84526742D-02  0.49933848D-02
  0.20221269D-02 -0.54635333D-02 -0.15577309D-02  0.23973530D-03 -0.64036478D-04
  0.00000000D+00  0.00000000D+00  0.12219080D-03 -0.00000000D+00 -0.00000000D+00
 -0.85502870D-04  0.00000000D+00  0.00000000D+00  0.21521905D-03 -0.00000000D+00
 -0.00000000D+00  0.34055456D-06  0.88247681D-07  0.88247681D-07 -0.00000000D+00
 -0.00000000D+00  0.00000000D+00  0.69140012D-06  0.18873802D-05  0.18873802D-05
  0.00000000D+00  0.00000000D+00 -0.00000000D+00
MO   20     MO 0.0        OCC NO =    0.0000000  ORB. ENERGY =    0.038578
  0.44473173D-03  0.71428931D-03 -0.16343898D-01  0.10367842D-01  0.91548492D-03
 -0.13609384D-01  0.18848009D-02  0.38043876D-02  0.32225487D-02 -0.84244893D-03
 -0.40128782D-04  0.00000000D+00  0.00000000D+00 -0.16290028D-04 -0.00000000D+00
 -0.00000000D+00  0.18708396D-03  0.00000000D+00  0.00000000D+00 -0.20396905D-03
 -0.00000000D+00 -0.00000000D+00 -0.62348356D-06 -0.59640947D-06 -0.59640947D-06
  0.00000000D+00  0.00000000D+00  0.00000000D+00 -0.46670191D-05 -0.44342021D-05
 -0.44342021D-05 -0.00000000D+00 -0.00000000D+00 -0.00000000D+00 -0.44473173D-03
 -0.71428931D-03  0.16343898D-01 -0.10367842D-01 -0.91548492D-03  0.13609384D-01
 -0.18848009D-02 -0.38043876D-02 -0.32225487D-02  0.84244893D-03 -0.40128782D-04
 -0.00000000D+00 -0.00000000D+00 -0.16290028D-04  0.00000000D+00  0.00000000D+00
  0.18708396D-03 -0.00000000D+00 -0.00000000D+00 -0.20396905D-03  0.00000000D+00
  0.00000000D+00  0.62348356D-06  0.59640947D-06  0.59640947D-06  0.00000000D+00
  0.00000000D+00 -0.00000000D+00  0.46670191D-05  0.44342021D-05  0.44342021D-05
 -0.00000000D+00 -0.00000000D+00 -0.00000000D+00
MO   21     MO 0.0        OCC NO =    0.0000000  ORB. ENERGY =    0.040051
 -0.00000000D+00  0.00000000D+00  0.00000000D+00 -0.00000000D+00 -0.00000000D+00
  0.00000000D+00 -0.00000000D+00  0.00000000D+00 -0.00000000D+00  0.00000000D+00
  0.00000000D+00 -0.00000000D+00 -0.00000000D+00 -0.00000000D+00  0.00000000D+00
  0.00000000D+00  0.00000000D+00 -0.00000000D+00 -0.00000000D+00 -0.00000000D+00
  0.00000000D+00  0.00000000D+00  0.00000000D+00  0.18124803D-08 -0.18124803D-08
 -0.00000000D+00 -0.00000000D+00  0.96368416D-07 -0.00000000D+00 -0.24292814D-07
  0.24292814D-07  0.00000000D+00  0.00000000D+00 -0.12916328D-05 -0.00000000D+00
  0.00000000D+00 -0.00000000D+00  0.00000000D+00  0.00000000D+00 -0.00000000D+00
  0.00000000D+00  0.00000000D+00  0.00000000D+00 -0.00000000D+00 -0.00000000D+00
  0.00000000D+00  0.00000000D+00  0.00000000D+00 -0.00000000D+00 -0.00000000D+00
 -0.00000000D+00  0.00000000D+00  0.00000000D+00  0.00000000D+00 -0.00000000D+00
 -0.00000000D+00  0.00000000D+00  0.18124803D-08 -0.18124803D-08 -0.00000000D+00
 -0.00000000D+00  0.96368416D-07 -0.00000000D+00 -0.24292814D-07  0.24292814D-07
  0.00000000D+00  0.00000000D+00 -0.12916328D-05
MO   22     MO 0.0        OCC NO =    0.0000000  ORB. ENERGY =    0.040051
 -0.00000000D+00  0.00000000D+00  0.00000000D+00 -0.00000000D+00  0.00000000D+00
 -0.00000000D+00  0.00000000D+00 -0.00000000D+00  0.00000000D+00 -0.00000000D+00
  0.00000000D+00  0.00000000D+00  0.00000000D+00 -0.00000000D+00 -0.00000000D+00
 -0.00000000D+00 -0.00000000D+00  0.00000000D+00  0.00000000D+00  0.00000000D+00
 -0.00000000D+00 -0.00000000D+00  0.00000000D+00 -0.48184208D-07  0.48184208D-07
  0.00000000D+00  0.00000000D+00  0.36249626D-08 -0.00000000D+00  0.64581640D-06
 -0.64581640D-06 -0.00000000D+00 -0.00000000D+00 -0.48585612D-07 -0.00000000D+00
  0.00000000D+00 -0.00000000D+00  0.00000000D+00 -0.00000000D+00  0.00000000D+00
 -0.00000000D+00  0.00000000D+00 -0.00000000D+00  0.00000000D+00 -0.00000000D+00
 -0.00000000D+00 -0.00000000D+00  0.00000000D+00  0.00000000D+00  0.00000000D+00
 -0.00000000D+00 -0.00000000D+00 -0.00000000D+00  0.00000000D+00  0.00000000D+00
  0.00000000D+00  0.00000000D+00 -0.48184208D-07  0.48184208D-07  0.00000000D+00
  0.00000000D+00  0.36249626D-08 -0.00000000D+00  0.64581640D-06 -0.64581640D-06
 -0.00000000D+00 -0.00000000D+00 -0.48585612D-07
MO   23     MO 0.0        OCC NO =    0.0000000  ORB. ENERGY =    0.042513
 -0.22134749D-03  0.10342090D-02 -0.40972503D-02  0.28933328D-02  0.49983718D-02
 -0.13443101D-01  0.28744450D-02  0.21697533D-02  0.29770867D-02 -0.83929857D-03
  0.18242141D-04  0.00000000D+00  0.00000000D+00 -0.10446084D-03 -0.00000000D+00
 -0.00000000D+00  0.12600726D-03  0.00000000D+00  0.00000000D+00 -0.13986634D-03
 -0.00000000D+00 -0.00000000D+00  0.48378692D-06  0.44469715D-06  0.44469715D-06
  0.00000000D+00  0.00000000D+00 -0.00000000D+00 -0.13875944D-06  0.40784556D-06
  0.40784556D-06 -0.00000000D+00 -0.00000000D+00  0.00000000D+00  0.22134749D-03
 -0.10342090D-02  0.40972503D-02 -0.28933328D-02 -0.49983718D-02  0.13443101D-01
 -0.28744450D-02 -0.21697533D-02 -0.29770867D-02  0.83929857D-03  0.18242141D-04
 -0.00000000D+00 -0.00000000D+00 -0.10446084D-03  0.00000000D+00  0.00000000D+00
  0.12600726D-03 -0.00000000D+00 -0.00000000D+00 -0.13986634D-03  0.00000000D+00
  0.00000000D+00 -0.48378692D-06 -0.44469715D-06 -0.44469715D-06  0.00000000D+00
  0.00000000D+00  0.00000000D+00  0.13875944D-06 -0.40784556D-06 -0.40784556D-06
 -0.00000000D+00 -0.00000000D+00 -0.00000000D+00
MO   24     MO 0.0        OCC NO =    0.0000000  ORB. ENERGY =    0.043259
  0.10784928D-01 -0.40150641D-02 -0.13255164D-02  0.21722696D-03 -0.15922710D-02
  0.35240892D-02 -0.80776667D-03 -0.48489519D-03 -0.77061998D-03  0.22079761D-03
 -0.36794516D-03  0.00000000D+00  0.00000000D+00  0.11765627D-03 -0.00000000D+00
 -0.00000000D+00 -0.72159592D-04  0.00000000D+00  0.00000000D+00  0.74693608D-04
 -0.00000000D+00 -0.00000000D+00 -0.16620005D-05 -0.15759686D-06 -0.15759686D-06
  0.00000000D+00  0.00000000D+00  0.00000000D+00  0.41457385D-07 -0.10993995D-05
 -0.10993995D-05 -0.00000000D+00 -0.00000000D+00 -0.00000000D+00  0.10784928D-01
 -0.40150641D-02 -0.13255164D-02  0.21722696D-03 -0.15922710D-02  0.35240892D-02
 -0.80776667D-03 -0.48489519D-03 -0.77061998D-03  0.22079761D-03  0.36794516D-03
 -0.00000000D+00 -0.00000000D+00 -0.11765627D-03  0.00000000D+00  0.00000000D+00