[Molden Format]
[Atoms] AU
E+       1       4     0.00000000     0.00000000     0.00000000
E+       2       4    58.20000000     0.00000000     0.00000000
[GTO]
  1 0
s  1 1.00
   1.0000000000E-04   1.0000000000E+00
s  1 1.00
   3.0000000000E-04   1.0000000000E+00
s  1 1.00
   9.0000000000E-04   1.0000000000E+00
s  1 1.00
   2.7000000000E-03   1.0000000000E+00
s  1 1.00
   8.1000000000E-03   1.0000000000E+00
s  1 1.00
   2.4300000000E-02   1.0000000000E+00
s  1 1.00
   7.2900000000E-02   1.0000000000E+00
s  1 1.00
   2.1870000000E-01   1.0000000000E+00
s  1 1.00
   6.5610000000E-01   1.0000000000E+00
s  1 1.00
   1.9683000000E+00   1.0000000000E+00
p  1 1.00
   1.0000000000E-04   1.0000000000E+00
p  1 1.00
   3.0000000000E-04   1.0000000000E+00
p  1 1.00
   9.0000000000E-04   1.0000000000E+00
p  1 1.00
   2.7000000000E-03   1.0000000000E+00
d  1 1.00
   1.0000000000E-04   1.0000000000E+00
d  1 1.00
   3.0000000000E-04   1.0000000000E+00
 
  2 0
s  1 1.00
   1.0000000000E-04   1.0000000000E+00
s  1 1.00
   3.0000000000E-04   1.0000000000E+00
s  1 1.00
   9.0000000000E-04   1.0000000000E+00
s  1 1.00
   2.7000000000E-03   1.0000000000E+00
s  1 1.00
   8.1000000000E-03   1.0000000000E+00
s  1 1.00
   2.4300000000E-02   1.0000000000E+00
s  1 1.00
   7.2900000000E-02   1.0000000000E+00
s  1 1.00
   2.1870000000E-01   1.0000000000E+00
s  1 1.00
   6.5610000000E-01   1.0000000000E+00
s  1 1.00
   1.9683000000E+00   1.0000000000E+00
p  1 1.00
   1.0000000000E-04   1.0000000000E+00
p  1 1.00
   3.0000000000E-04   1.0000000000E+00
p  1 1.00
   9.0000000000E-04   1.0000000000E+00
p  1 1.00
   2.7000000000E-03   1.0000000000E+00
d  1 1.00
   1.0000000000E-04   1.0000000000E+00
d  1 1.00
   3.0000000000E-04   1.0000000000E+00
 
 
[MO]
Ene=     4.57006E-03
Spin= Alpha
Occup=   1.0000000000
   1      -0.45501097
   2      -0.21862543
   3       0.72104063
   4      -0.15986248
   5       0.13765031
   6       0.06078076
   7       0.05422178
   8      -0.04111087
   9      -0.00229327
  10      -0.00003288
  11       0.47738917
  12       0.00000000
  13       0.00000000
  14      -0.18532107
  15      -0.00000000
  16       0.00000000
  17       0.34509752
  18       0.00000000
  19      -0.00000000
  20       0.10216715
  21      -0.00000000
  22       0.00000000
  23       0.26155696
  24       0.02667833
  25       0.02667833
  26       0.00000000
  27       0.00000000
  28       0.00000000
  29       0.07288109
  30       0.09102593
  31       0.09102593
  32       0.00000000
  33       0.00000000
  34      -0.00000000
  35      -0.45501097
  36      -0.21862543
  37       0.72104063
  38      -0.15986248
  39       0.13765031
  40       0.06078076
  41       0.05422178
  42      -0.04111087
  43      -0.00229327
  44      -0.00003288
  45      -0.47738917
  46      -0.00000000
  47      -0.00000000
  48       0.18532107
  49       0.00000000
  50      -0.00000000
  51      -0.34509752
  52      -0.00000000
  53       0.00000000
  54      -0.10216715
  55       0.00000000
  56      -0.00000000
  57       0.26155696
  58       0.02667833
  59       0.02667833
  60       0.00000000
  61       0.00000000
  62      -0.00000000
  63       0.07288109
  64       0.09102593
  65       0.09102593
  66       0.00000000
  67       0.00000000
  68       0.00000000
Ene=     6.51318E-03
Spin= Alpha
Occup=   0.0000000000
   1      -0.01986804
   2       0.70624390
   3       0.06220395
   4       0.42841936
   5       0.08486232
   6       0.18958810
   7       0.08816558
   8      -0.07647654
   9      -0.00612836
  10       0.00020468
  11       0.04052413
  12       0.00000000
  13      -0.00000000
  14       0.50560371
  15      -0.00000000
  16       0.00000000
  17      -0.12529478
  18       0.00000000
  19      -0.00000000
  20       0.32417907
  21      -0.00000000
  22       0.00000000
  23       0.03184823
  24       0.02497371
  25       0.02497371
  26       0.00000000
  27      -0.00000000
  28      -0.00000000
  29       0.21553141
  30       0.06679855
  31       0.06679855
  32       0.00000000
  33      -0.00000000
  34       0.00000000
  35       0.01986804
  36      -0.70624390
  37      -0.06220395
  38      -0.42841936
  39      -0.08486232
  40      -0.18958810
  41      -0.08816558
  42       0.07647654
  43       0.00612836
  44      -0.00020468
  45       0.04052413
  46      -0.00000000
  47       0.00000000
  48       0.50560371
  49       0.00000000
  50      -0.00000000
  51      -0.12529478
  52      -0.00000000
  53       0.00000000
  54       0.32417907
  55       0.00000000
  56      -0.00000000
  57      -0.03184823
  58      -0.02497371
  59      -0.02497371
  60       0.00000000
  61      -0.00000000
  62       0.00000000
  63      -0.21553141
  64      -0.06679855
  65      -0.06679855
  66      -0.00000000
  67      -0.00000000
  68      -0.00000000
Ene=     8.45828E-03
Spin= Alpha
Occup=   0.0000000000
   1       0.38907546
   2       0.07509208
   3      -0.68064787
   4       0.76688644
   5       0.05448050
   6       0.21867169
   7       0.08619124
   8      -0.07819696
   9      -0.00685998
  10       0.00029226
  11      -0.59539756
  12      -0.00000000
  13      -0.00000000
  14       0.23778850
  15       0.00000000
  16       0.00000000
  17      -0.50715243
  18       0.00000000
  19       0.00000000
  20       0.32203298
  21      -0.00000000
  22      -0.00000000
  23      -0.30363229
  24      -0.00712170
  25      -0.00712170
  26      -0.00000000
  27      -0.00000000
  28       0.00000000
  29       0.00862816
  30      -0.02377960
  31      -0.02377960
  32       0.00000000
  33       0.00000000
  34       0.00000000
  35       0.38907546
  36       0.07509208
  37      -0.68064787
  38       0.76688644
  39       0.05448050
  40       0.21867169
  41       0.08619124
  42      -0.07819696
  43      -0.00685998
  44       0.00029226
  45       0.59539756
  46       0.00000000
  47       0.00000000
  48      -0.23778850
  49      -0.00000000
  50      -0.00000000
  51       0.50715243
  52      -0.00000000
  53       0.00000000
  54      -0.32203298
  55       0.00000000
  56      -0.00000000
  57      -0.30363229
  58      -0.00712170
  59      -0.00712170
  60      -0.00000000
  61      -0.00000000
  62       0.00000000
  63       0.00862816
  64      -0.02377960
  65      -0.02377960
  66       0.00000000
  67       0.00000000
  68      -0.00000000
Ene=     1.47875E-02
Spin= Alpha
Occup=   0.0000000000
   1       0.02053149
   2       2.60300227
   3      -0.93033657
   4      -0.09016761
   5       0.55095155
   6       0.09816880
   7       0.11223529
   8      -0.08176663
   9      -0.00412032
  10      -0.00013928
  11      -0.12219058
  12      -0.00000000
  13      -0.00000000
  14       1.48943973
  15       0.00000000
  16       0.00000000
  17      -0.31727192
  18      -0.00000000
  19      -0.00000000
  20      -0.34454962
  21       0.00000000
  22       0.00000000
  23      -0.10207480
  24      -0.07968681
  25      -0.07968681
  26      -0.00000000
  27      -0.00000000
  28       0.00000000
  29       0.30099851
  30      -0.13886836
  31      -0.13886836
  32       0.00000000
  33       0.00000000
  34       0.00000000
  35      -0.02053149
  36      -2.60300227
  37       0.93033657
  38       0.09016761
  39      -0.55095155
  40      -0.09816880
  41      -0.11223529
  42       0.08176663
  43       0.00412032
  44       0.00013928
  45      -0.12219058
  46       0.00000000
  47       0.00000000
  48       1.48943973
  49      -0.00000000
  50      -0.00000000
  51      -0.31727192
  52       0.00000000
  53      -0.00000000
  54      -0.34454962
  55      -0.00000000
  56      -0.00000000
  57       0.10207480
  58       0.07968681
  59       0.07968681
  60      -0.00000000
  61      -0.00000000
  62      -0.00000000
  63      -0.30099851
  64       0.13886836
  65       0.13886836
  66       0.00000000
  67       0.00000000
  68       0.00000000
Ene=     1.71164E-02
Spin= Alpha
Occup=   0.0000000000
   1       0.00000000
   2       0.00000000
   3      -0.00000000
   4      -0.00000000
   5       0.00000000
   6       0.00000000
   7       0.00000000
   8      -0.00000000
   9      -0.00000000
  10      -0.00000000
  11       0.00000000
  12      -0.03849291
  13      -0.05626547
  14      -0.00000000
  15       0.09572155
  16       0.13991713
  17       0.00000000
  18      -0.35496639
  19      -0.51885789
  20      -0.00000000
  21      -0.06179228
  22      -0.09032239
  23      -0.00000000
  24      -0.00000000
  25      -0.00000000
  26       0.04921152
  27       0.07193296
  28      -0.00000000
  29      -0.00000000
  30      -0.00000000
  31      -0.00000000
  32      -0.07689107
  33      -0.11239244
  34       0.00000000
  35       0.00000000
  36       0.00000000
  37      -0.00000000
  38      -0.00000000
  39       0.00000000
  40       0.00000000
  41       0.00000000
  42      -0.00000000
  43      -0.00000000
  44       0.00000000
  45      -0.00000000
  46      -0.03849291
  47      -0.05626547
  48      -0.00000000
  49       0.09572155
  50       0.13991713
  51      -0.00000000
  52      -0.35496639
  53      -0.51885789
  54       0.00000000
  55      -0.06179228
  56      -0.09032239
  57       0.00000000
  58      -0.00000000
  59       0.00000000
  60      -0.04921152
  61      -0.07193296
  62       0.00000000
  63      -0.00000000
  64      -0.00000000
  65      -0.00000000
  66       0.07689107
  67       0.11239244
  68      -0.00000000
Ene=     1.71164E-02
Spin= Alpha
Occup=   0.0000000000
   1       0.00000000
   2      -0.00000000
   3       0.00000000
   4      -0.00000000
   5       0.00000000
   6      -0.00000000
   7       0.00000000
   8      -0.00000000
   9      -0.00000000
  10       0.00000000
  11      -0.00000000
  12      -0.05626547
  13       0.03849291
  14      -0.00000000
  15       0.13991713
  16      -0.09572155
  17       0.00000000
  18      -0.51885789
  19       0.35496639
  20      -0.00000000
  21      -0.09032239
  22       0.06179228
  23      -0.00000000
  24      -0.00000000
  25      -0.00000000
  26       0.07193296
  27      -0.04921152
  28      -0.00000000
  29      -0.00000000
  30      -0.00000000
  31      -0.00000000
  32      -0.11239244
  33       0.07689107
  34      -0.00000000
  35       0.00000000
  36       0.00000000
  37      -0.00000000
  38       0.00000000
  39      -0.00000000
  40       0.00000000
  41      -0.00000000
  42       0.00000000
  43      -0.00000000
  44      -0.00000000
  45       0.00000000
  46      -0.05626547
  47       0.03849291
  48      -0.00000000
  49       0.13991713
  50      -0.09572155
  51       0.00000000
  52      -0.51885789
  53       0.35496639
  54      -0.00000000
  55      -0.09032239
  56       0.06179228
  57      -0.00000000
  58       0.00000000
  59       0.00000000
  60      -0.07193296
  61       0.04921152
  62      -0.00000000
  63       0.00000000
  64       0.00000000
  65       0.00000000
  66       0.11239244
  67      -0.07689107
  68       0.00000000
Ene=     1.74410E-02
Spin= Alpha
Occup=   0.0000000000
   1       0.68081328
   2       0.46978974
   3      -0.17081638
   4      -1.04051816
   5       0.82777854
   6       0.00649768
   7       0.11888706
   8      -0.07643350
   9      -0.00193570
  10      -0.00040626
  11       0.14505955
  12      -0.00000000
  13      -0.00000000
  14       0.01460469
  15      -0.00000000
  16      -0.00000000
  17       0.46079563
  18       0.00000000
  19       0.00000000
  20      -0.76070530
  21      -0.00000000
  22       0.00000000
  23      -0.04898938
  24      -0.10965028
  25      -0.10965028
  26       0.00000000
  27      -0.00000000
  28       0.00000000
  29      -0.24420376
  30      -0.34903340
  31      -0.34903340
  32       0.00000000
  33       0.00000000
  34       0.00000000
  35       0.68081328
  36       0.46978974
  37      -0.17081638
  38      -1.04051816
  39       0.82777854
  40       0.00649768
  41       0.11888706
  42      -0.07643350
  43      -0.00193570
  44      -0.00040626
  45      -0.14505955
  46       0.00000000
  47       0.00000000
  48      -0.01460469
  49      -0.00000000
  50       0.00000000
  51      -0.46079563
  52       0.00000000
  53       0.00000000
  54       0.76070530
  55       0.00000000
  56      -0.00000000
  57      -0.04898938
  58      -0.10965028
  59      -0.10965028
  60      -0.00000000
  61      -0.00000000
  62       0.00000000
  63      -0.24420376
  64      -0.34903340
  65      -0.34903340
  66       0.00000000
  67      -0.00000000
  68      -0.00000000
Ene=     1.98691E-02
Spin= Alpha
Occup=   0.0000000000
   1      -0.00000000
   2       0.00000000
   3      -0.00000000
   4       0.00000000
   5      -0.00000000
   6      -0.00000000
   7      -0.00000000
   8       0.00000000
   9      -0.00000000
  10       0.00000000
  11       0.00000000
  12      -0.16970831
  13      -0.04680670
  14       0.00000000
  15       0.01588741
  16       0.00438185
  17      -0.00000000
  18      -0.14349960
  19      -0.03957816
  20       0.00000000
  21      -0.59966883
  22      -0.16539272
  23       0.00000000
  24       0.00000000
  25       0.00000000
  26      -0.03714473
  27      -0.01024477
  28      -0.00000000
  29       0.00000000
  30       0.00000000
  31       0.00000000
  32      -0.03807501
  33      -0.01050135
  34      -0.00000000
  35       0.00000000
  36      -0.00000000
  37       0.00000000
  38      -0.00000000
  39       0.00000000
  40      -0.00000000
  41       0.00000000
  42      -0.00000000
  43      -0.00000000
  44       0.00000000
  45       0.00000000
  46       0.16970831
  47       0.04680670
  48       0.00000000
  49      -0.01588741
  50      -0.00438185
  51      -0.00000000
  52       0.14349960
  53       0.03957816
  54       0.00000000
  55       0.59966883
  56       0.16539272
  57      -0.00000000
  58      -0.00000000
  59      -0.00000000
  60      -0.03714473
  61      -0.01024477
  62       0.00000000
  63      -0.00000000
  64      -0.00000000
  65      -0.00000000
  66      -0.03807501
  67      -0.01050135
  68      -0.00000000
Ene=     1.98691E-02
Spin= Alpha
Occup=   0.0000000000
   1       0.00000000
   2       0.00000000
   3      -0.00000000
   4       0.00000000
   5      -0.00000000
   6       0.00000000
   7       0.00000000
   8      -0.00000000
   9      -0.00000000
  10       0.00000000
  11      -0.00000000
  12       0.04680670
  13      -0.16970831
  14       0.00000000
  15      -0.00438185
  16       0.01588741
  17      -0.00000000
  18       0.03957816
  19      -0.14349960
  20       0.00000000
  21       0.16539272
  22      -0.59966883
  23      -0.00000000
  24       0.00000000
  25       0.00000000
  26       0.01024477
  27      -0.03714473
  28       0.00000000
  29       0.00000000
  30       0.00000000
  31       0.00000000
  32       0.01050135
  33      -0.03807501
  34      -0.00000000
  35       0.00000000
  36      -0.00000000
  37       0.00000000
  38      -0.00000000
  39       0.00000000
  40       0.00000000
  41       0.00000000
  42      -0.00000000
  43      -0.00000000
  44       0.00000000
  45       0.00000000
  46      -0.04680670
  47       0.16970831
  48       0.00000000
  49       0.00438185
  50      -0.01588741
  51      -0.00000000
  52      -0.03957816
  53       0.14349960
  54       0.00000000
  55      -0.16539272
  56       0.59966883
  57      -0.00000000
  58      -0.00000000
  59      -0.00000000
  60       0.01024477
  61      -0.03714473
  62      -0.00000000
  63      -0.00000000
  64      -0.00000000
  65      -0.00000000
  66       0.01050135
  67      -0.03807501
  68       0.00000000
Ene=     2.11367E-02
Spin= Alpha
Occup=   0.0000000000
   1      -0.04610923
   2       7.38017893
   3      -2.31521201
   4       1.77638249
   5      -0.70719595
   6       0.07290129
   7      -0.07136694
   8       0.03811866
   9      -0.00065747
  10       0.00043499
  11      -0.05100052
  12      -0.00000000
  13      -0.00000000
  14       4.64287233
  15       0.00000000
  16       0.00000000
  17      -1.51404152
  18      -0.00000000
  19      -0.00000000
  20       0.72422454
  21       0.00000000
  22       0.00000000
  23      -0.03117538
  24      -0.04691117
  25      -0.04691117
  26      -0.00000000
  27      -0.00000000
  28      -0.00000000
  29       1.37004596
  30       0.05050984
  31       0.05050984
  32       0.00000000
  33       0.00000000
  34       0.00000000
  35       0.04610923
  36      -7.38017893
  37       2.31521201
  38      -1.77638249
  39       0.70719595
  40      -0.07290129
  41       0.07136694
  42      -0.03811866
  43       0.00065747
  44      -0.00043499
  45      -0.05100052
  46       0.00000000
  47       0.00000000
  48       4.64287233
  49      -0.00000000
  50      -0.00000000
  51      -1.51404152
  52      -0.00000000
  53      -0.00000000
  54       0.72422454
  55       0.00000000
  56       0.00000000
  57       0.03117538
  58       0.04691117
  59       0.04691117
  60      -0.00000000
  61      -0.00000000
  62       0.00000000
  63      -1.37004596
  64      -0.05050984
  65      -0.05050984
  66       0.00000000
  67       0.00000000
  68      -0.00000000
Ene=     2.31451E-02
Spin= Alpha
Occup=   0.0000000000
   1      -0.00000000
   2      -0.00000000
   3       0.00000000
   4       0.00000000
   5      -0.00000000
   6       0.00000000
   7      -0.00000000
   8       0.00000000
   9      -0.00000000
  10      -0.00000000
  11       0.00000000
  12       0.00313386
  13       0.06497562
  14      -0.00000000
  15      -0.00809422
  16      -0.16782068
  17       0.00000000
  18       0.03805760
  19       0.78906346
  20       0.00000000
  21      -0.04813309
  22      -0.99796266
  23       0.00000000
  24      -0.00000000
  25      -0.00000000
  26      -0.00393949
  27      -0.08167896
  28       0.00000000
  29      -0.00000000
  30       0.00000000
  31       0.00000000
  32       0.00616237
  33       0.12776691
  34      -0.00000000
  35      -0.00000000
  36       0.00000000
  37       0.00000000
  38      -0.00000000
  39       0.00000000
  40      -0.00000000
  41       0.00000000
  42       0.00000000
  43      -0.00000000
  44       0.00000000
  45      -0.00000000
  46       0.00313386
  47       0.06497562
  48      -0.00000000
  49      -0.00809422
  50      -0.16782068
  51      -0.00000000
  52       0.03805760
  53       0.78906346
  54       0.00000000
  55      -0.04813309
  56      -0.99796266
  57       0.00000000
  58       0.00000000
  59       0.00000000
  60       0.00393949
  61       0.08167896
  62      -0.00000000
  63       0.00000000
  64       0.00000000
  65       0.00000000
  66      -0.00616237
  67      -0.12776691
  68       0.00000000
Ene=     2.31451E-02
Spin= Alpha
Occup=   0.0000000000
   1       0.00000000
   2      -0.00000000
   3      -0.00000000
   4       0.00000000
   5      -0.00000000
   6       0.00000000
   7      -0.00000000
   8      -0.00000000
   9       0.00000000
  10      -0.00000000
  11      -0.00000000
  12       0.06497562
  13      -0.00313386
  14      -0.00000000
  15      -0.16782068
  16       0.00809422
  17      -0.00000000
  18       0.78906346
  19      -0.03805760
  20       0.00000000
  21      -0.99796266
  22       0.04813309
  23      -0.00000000
  24      -0.00000000
  25      -0.00000000
  26      -0.08167896
  27       0.00393949
  28       0.00000000
  29      -0.00000000
  30      -0.00000000
  31      -0.00000000
  32       0.12776691
  33      -0.00616237
  34      -0.00000000
  35      -0.00000000
  36       0.00000000
  37       0.00000000
  38      -0.00000000
  39       0.00000000
  40      -0.00000000
  41       0.00000000
  42      -0.00000000
  43       0.00000000
  44      -0.00000000
  45      -0.00000000
  46       0.06497562
  47      -0.00313386
  48      -0.00000000
  49      -0.16782068
  50       0.00809422
  51      -0.00000000
  52       0.78906346
  53      -0.03805760
  54       0.00000000
  55      -0.99796266
  56       0.04813309
  57       0.00000000
  58       0.00000000
  59       0.00000000
  60       0.08167896
  61      -0.00393949
  62      -0.00000000
  63       0.00000000
  64       0.00000000
  65       0.00000000
  66      -0.12776691
  67       0.00616237
  68       0.00000000
Ene=     2.75568E-02
Spin= Alpha
Occup=   0.0000000000
   1       0.79324586
   2       0.11585204
   3      -0.11932314
   4       0.74101986
   5      -0.55562308
   6      -0.01920648
   7      -0.06172131
   8       0.04113572
   9       0.00145108
  10       0.00016496
  11      -0.76746166
  12      -0.00000000
  13      -0.00000000
  14       0.30501629
  15       0.00000000
  16       0.00000000
  17      -0.35761714
  18      -0.00000000
  19       0.00000000
  20      -0.20824110
  21       0.00000000
  22      -0.00000000
  23      -0.44593231
  24      -0.05163501
  25      -0.05163501
  26      -0.00000000
  27      -0.00000000
  28       0.00000000
  29      -0.04911288
  30      -0.13842237
  31      -0.13842237
  32       0.00000000
  33       0.00000000
  34      -0.00000000
  35       0.79324586
  36       0.11585204
  37      -0.11932314
  38       0.74101986
  39      -0.55562308
  40      -0.01920648
  41      -0.06172131
  42       0.04113572
  43       0.00145108
  44       0.00016496
  45       0.76746166
  46       0.00000000
  47       0.00000000
  48      -0.30501629
  49      -0.00000000
  50      -0.00000000
  51       0.35761714
  52       0.00000000
  53      -0.00000000
  54       0.20824110
  55      -0.00000000
  56       0.00000000
  57      -0.44593231
  58      -0.05163501
  59      -0.05163501
  60      -0.00000000
  61      -0.00000000
  62      -0.00000000
  63      -0.04911288
  64      -0.13842237
  65      -0.13842237
  66       0.00000000
  67       0.00000000
  68       0.00000000
Ene=     2.80429E-02
Spin= Alpha
Occup=   0.0000000000
   1      -0.00000000
   2      -0.00000000
   3       0.00000000
   4      -0.00000000
   5       0.00000000
   6      -0.00000000
   7       0.00000000
   8      -0.00000000
   9       0.00000000
  10      -0.00000000
  11      -0.00000000
  12      -0.35973818
  13       1.52412452
  14      -0.00000000
  15       0.11222581
  16      -0.47547388
  17       0.00000000
  18      -0.32063251
  19       1.35844315
  20       0.00000000
  21       0.20258111
  22      -0.85828763
  23      -0.00000000
  24       0.00000000
  25       0.00000000
  26      -0.09448164
  27       0.40029610
  28       0.00000000
  29      -0.00000000
  30       0.00000000
  31       0.00000000
  32      -0.00087983
  33       0.00372762
  34       0.00000000
  35       0.00000000
  36       0.00000000
  37       0.00000000
  38       0.00000000
  39      -0.00000000
  40       0.00000000
  41      -0.00000000
  42       0.00000000
  43      -0.00000000
  44      -0.00000000
  45      -0.00000000
  46       0.35973818
  47      -1.52412452
  48      -0.00000000
  49      -0.11222581
  50       0.47547388
  51       0.00000000
  52       0.32063251
  53      -1.35844315
  54      -0.00000000
  55      -0.20258111
  56       0.85828763
  57      -0.00000000
  58       0.00000000
  59       0.00000000
  60      -0.09448164
  61       0.40029610
  62      -0.00000000
  63       0.00000000
  64       0.00000000
  65       0.00000000
  66      -0.00087983
  67       0.00372762
  68       0.00000000
Ene=     2.80429E-02
Spin= Alpha
Occup=   0.0000000000
   1       0.00000000
   2       0.00000000
   3      -0.00000000
   4       0.00000000
   5      -0.00000000
   6       0.00000000
   7      -0.00000000
   8       0.00000000
   9       0.00000000
  10      -0.00000000
  11      -0.00000000
  12      -1.52412452
  13      -0.35973818
  14       0.00000000
  15       0.47547388
  16       0.11222581
  17      -0.00000000
  18      -1.35844315
  19      -0.32063251
  20       0.00000000
  21       0.85828763
  22       0.20258111
  23      -0.00000000
  24      -0.00000000
  25      -0.00000000
  26      -0.40029610
  27      -0.09448164
  28       0.00000000
  29      -0.00000000
  30      -0.00000000
  31      -0.00000000
  32      -0.00372762
  33      -0.00087983
  34      -0.00000000
  35       0.00000000
  36      -0.00000000
  37      -0.00000000
  38       0.00000000
  39       0.00000000
  40      -0.00000000
  41       0.00000000
  42      -0.00000000
  43      -0.00000000
  44       0.00000000
  45       0.00000000
  46       1.52412452
  47       0.35973818
  48       0.00000000
  49      -0.47547388
  50      -0.11222581
  51       0.00000000
  52       1.35844315
  53       0.32063251
  54      -0.00000000
  55      -0.85828763
  56      -0.20258111
  57      -0.00000000
  58       0.00000000
  59       0.00000000
  60      -0.40029610
  61      -0.09448164
  62      -0.00000000
  63      -0.00000000
  64      -0.00000000
  65      -0.00000000
  66      -0.00372762
  67      -0.00087983
  68       0.00000000
Ene=     2.91582E-02
Spin= Alpha
Occup=   0.0000000000
   1       0.02354980
   2      -1.82638763
   3       0.61316698
   4      -1.28654543
   5       0.73047900
   6       0.00285523
   7       0.07321430
   8      -0.04679521
   9      -0.00125842
  10      -0.00024407
  11      -0.01878887
  12       0.00000000
  13       0.00000000
  14      -1.28312615
  15      -0.00000000
  16      -0.00000000
  17       0.71990796
  18      -0.00000000
  19      -0.00000000
  20       0.21610652
  21       0.00000000
  22       0.00000000
  23      -0.02902856
  24       0.00017831
  25       0.00017831
  26       0.00000000
  27       0.00000000
  28       0.00000000
  29      -0.43067484
  30      -0.09665056
  31      -0.09665056
  32      -0.00000000
  33      -0.00000000
  34      -0.00000000
  35      -0.02354980
  36       1.82638763
  37      -0.61316698
  38       1.28654543
  39      -0.73047900
  40      -0.00285523
  41      -0.07321430
  42       0.04679521
  43       0.00125842
  44       0.00024407
  45      -0.01878887
  46      -0.00000000
  47      -0.00000000
  48      -1.28312615
  49       0.00000000
  50       0.00000000
  51       0.71990796
  52      -0.00000000
  53       0.00000000
  54       0.21610652
  55       0.00000000
  56      -0.00000000
  57       0.02902856
  58      -0.00017831
  59      -0.00017831
  60       0.00000000
  61       0.00000000
  62      -0.00000000
  63       0.43067484
  64       0.09665056
  65       0.09665056
  66      -0.00000000
  67      -0.00000000
  68       0.00000000
Ene=     3.16312E-02
Spin= Alpha
Occup=   0.0000000000
   1       5.47769890
   2       2.23973607
   3      -4.19325939
   4       1.61794780
   5      -0.45425419
   6      -0.01082575
   7      -0.03183167
   8       0.02166821
   9       0.00091350
  10       0.00006634
  11      -2.99495365
  12      -0.00000000
  13      -0.00000000
  14       1.46315512
  15       0.00000000
  16       0.00000000
  17      -0.85517628
  18      -0.00000000
  19      -0.00000000
  20       0.52867587
  21      -0.00000000
  22      -0.00000000
  23      -2.15639065
  24      -0.55039667
  25      -0.55039667
  26      -0.00000000
  27      -0.00000000
  28       0.00000000
  29      -0.87949389
  30      -1.64207196
  31      -1.64207196
  32       0.00000000
  33       0.00000000
  34      -0.00000000
  35       5.47769890
  36       2.23973607
  37      -4.19325939
  38       1.61794780
  39      -0.45425419
  40      -0.01082575
  41      -0.03183167
  42       0.02166821
  43       0.00091350
  44       0.00006634
  45       2.99495365
  46       0.00000000
  47       0.00000000
  48      -1.46315512
  49      -0.00000000
  50      -0.00000000
  51       0.85517628
  52       0.00000000
  53       0.00000000
  54      -0.52867587
  55       0.00000000
  56      -0.00000000
  57      -2.15639065
  58      -0.55039667
  59      -0.55039667
  60      -0.00000000
  61      -0.00000000
  62      -0.00000000
  63      -0.87949389
  64      -1.64207196
  65      -1.64207196
  66       0.00000000
  67       0.00000000
  68       0.00000000
Ene=     3.43232E-02
Spin= Alpha
Occup=   0.0000000000
   1       0.82801113
   2       0.88498619
   3      -2.28137316
   4       1.91759191
   5      -0.78365740
   6       0.02242508
   7      -0.06385112
   8       0.03828969
   9       0.00053568
  10       0.00027163
  11       0.21077796
  12      -0.00000000
  13      -0.00000000
  14       0.00248728
  15       0.00000000
  16       0.00000000
  17       0.68892775
  18      -0.00000000
  19      -0.00000000
  20      -0.58994754
  21       0.00000000
  22       0.00000000
  23      -0.05683628
  24      -0.13915235
  25      -0.13915235
  26      -0.00000000
  27      -0.00000000
  28       0.00000000
  29      -0.32408820
  30      -0.46212273
  31      -0.46212273
  32       0.00000000
  33       0.00000000
  34      -0.00000000
  35       0.82801113
  36       0.88498619
  37      -2.28137316
  38       1.91759191
  39      -0.78365740
  40       0.02242508
  41      -0.06385112
  42       0.03828969
  43       0.00053568
  44       0.00027163
  45      -0.21077796
  46       0.00000000
  47       0.00000000
  48      -0.00248728
  49      -0.00000000
  50      -0.00000000
  51      -0.68892775
  52      -0.00000000
  53       0.00000000
  54       0.58994754
  55       0.00000000
  56      -0.00000000
  57      -0.05683628
  58      -0.13915235
  59      -0.13915235
  60      -0.00000000
  61      -0.00000000
  62      -0.00000000
  63      -0.32408820
  64      -0.46212273
  65      -0.46212273
  66       0.00000000
  67       0.00000000
  68       0.00000000
Ene=     3.47828E-02
Spin= Alpha
Occup=   0.0000000000
   1       0.00520681
   2      -5.76832944
   3      -0.44845608
   4       1.04098881
   5      -0.50877982
   6       0.03292682
   7      -0.04335992
   8       0.02411352
   9      -0.00009881
  10       0.00023292
  11       0.11690129
  12       0.00000000