[Molden Format]
[Title]
 Molden2AIM, Version 3.1.0 (02/25/2015)           Time: Thu Oct 17 19:55:22 2024

[Atoms] AU
E+       1       4     0.00000000     0.00000000     0.00000000
E+       2       4    45.20000000     0.00000000     0.00000000
[GTO]
    1 0
 S   1 1.0
    0.1000000000D-03      0.1000000000D+01
 S   1 1.0
    0.3000000000D-03      0.1000000000D+01
 S   1 1.0
    0.9000000000D-03      0.1000000000D+01
 S   1 1.0
    0.2700000000D-02      0.1000000000D+01
 S   1 1.0
    0.8100000000D-02      0.1000000000D+01
 S   1 1.0
    0.2430000000D-01      0.1000000000D+01
 S   1 1.0
    0.7290000000D-01      0.1000000000D+01
 S   1 1.0
    0.2187000000D+00      0.1000000000D+01
 S   1 1.0
    0.6561000000D+00      0.1000000000D+01
 S   1 1.0
    0.1968300000D+01      0.1000000000D+01
 P   1 1.0
    0.1000000000D-03      0.1000000000D+01
 P   1 1.0
    0.3000000000D-03      0.1000000000D+01
 P   1 1.0
    0.9000000000D-03      0.1000000000D+01
 P   1 1.0
    0.2700000000D-02      0.1000000000D+01
 D   1 1.0
    0.1000000000D-03      0.1000000000D+01
 D   1 1.0
    0.3000000000D-03      0.1000000000D+01

    2 0
 S   1 1.0
    0.1000000000D-03      0.1000000000D+01
 S   1 1.0
    0.3000000000D-03      0.1000000000D+01
 S   1 1.0
    0.9000000000D-03      0.1000000000D+01
 S   1 1.0
    0.2700000000D-02      0.1000000000D+01
 S   1 1.0
    0.8100000000D-02      0.1000000000D+01
 S   1 1.0
    0.2430000000D-01      0.1000000000D+01
 S   1 1.0
    0.7290000000D-01      0.1000000000D+01
 S   1 1.0
    0.2187000000D+00      0.1000000000D+01
 S   1 1.0
    0.6561000000D+00      0.1000000000D+01
 S   1 1.0
    0.1968300000D+01      0.1000000000D+01
 P   1 1.0
    0.1000000000D-03      0.1000000000D+01
 P   1 1.0
    0.3000000000D-03      0.1000000000D+01
 P   1 1.0
    0.9000000000D-03      0.1000000000D+01
 P   1 1.0
    0.2700000000D-02      0.1000000000D+01
 D   1 1.0
    0.1000000000D-03      0.1000000000D+01
 D   1 1.0
    0.3000000000D-03      0.1000000000D+01


[MO]
 Ene=         -0.00207205
 Spin= Alpha
 Occup=        1.00000000
    1        0.0009400500
    2        0.0356085200
    3       -0.0549127500
    4       -0.2159171000
    5       -0.2742724800
    6       -0.1923005600
    7       -0.1172764400
    8        0.0951093500
    9        0.0065652100
   10       -0.0000999600
   11        0.0172425600
   12        0.0000000000
   13        0.0000000000
   14       -0.0160801600
   15       -0.0000000000
   16       -0.0000000000
   17        0.0027754600
   18        0.0000000000
   19        0.0000000000
   20       -0.1222334700
   21       -0.0000000000
   22       -0.0000000000
   23        0.0066126800
   24       -0.0013677000
   25       -0.0013677000
   26        0.0000000000
   27        0.0000000000
   28       -0.0000000000
   29       -0.0187189500
   30       -0.0064443500
   31       -0.0064443500
   32       -0.0000000000
   33       -0.0000000000
   34        0.0000000000
   35        0.0009400500
   36        0.0356085100
   37       -0.0549127500
   38       -0.2159171000
   39       -0.2742724800
   40       -0.1923005600
   41       -0.1172764400
   42        0.0951093500
   43        0.0065652100
   44       -0.0000999600
   45       -0.0172425600
   46       -0.0000000000
   47       -0.0000000000
   48        0.0160801600
   49        0.0000000000
   50        0.0000000000
   51       -0.0027754600
   52       -0.0000000000
   53       -0.0000000000
   54        0.1222334700
   55        0.0000000000
   56        0.0000000000
   57        0.0066126800
   58       -0.0013677000
   59       -0.0013677000
   60        0.0000000000
   61        0.0000000000
   62        0.0000000000
   63       -0.0187189500
   64       -0.0064443500
   65       -0.0064443500
   66       -0.0000000000
   67       -0.0000000000
   68       -0.0000000000
 Ene=         -0.00181091
 Spin= Alpha
 Occup=        0.00000000
    1       -0.0167855300
    2        1.1467467600
    3       -0.0048501600
    4        0.2738692100
    5        0.2659849500
    6        0.2123193700
    7        0.1200370300
    8       -0.0990110200
    9       -0.0071389400
   10        0.0001474600
   11        0.0121894900
   12       -0.0000000000
   13       -0.0000000000
   14        0.5224256100
   15        0.0000000000
   16        0.0000000000
   17       -0.0597408200
   18        0.0000000000
   19       -0.0000000000
   20        0.1471259500
   21       -0.0000000000
   22        0.0000000000
   23        0.0126541600
   24        0.0115601200
   25        0.0115601200
   26       -0.0000000000
   27       -0.0000000000
   28       -0.0000000000
   29        0.1490791200
   30        0.0290147600
   31        0.0290147600
   32        0.0000000000
   33        0.0000000000
   34        0.0000000000
   35        0.0167855300
   36       -1.1467467600
   37        0.0048501600
   38       -0.2738692100
   39       -0.2659849500
   40       -0.2123193700
   41       -0.1200370300
   42        0.0990110200
   43        0.0071389400
   44       -0.0001474600
   45        0.0121894900
   46        0.0000000000
   47        0.0000000000
   48        0.5224256100
   49       -0.0000000000
   50       -0.0000000000
   51       -0.0597408200
   52        0.0000000000
   53        0.0000000000
   54        0.1471259500
   55       -0.0000000000
   56       -0.0000000000
   57       -0.0126541600
   58       -0.0115601200
   59       -0.0115601200
   60       -0.0000000000
   61       -0.0000000000
   62       -0.0000000000
   63       -0.1490791200
   64       -0.0290147600
   65       -0.0290147600
   66        0.0000000000
   67        0.0000000000
   68        0.0000000000
 Ene=          0.00467209
 Spin= Alpha
 Occup=        0.00000000
    1        0.6094401400
    2        0.1425921500
    3       -0.9379324700
    4        0.5299658200
    5        0.0985815000
    6        0.1289181300
    7        0.0472872400
    8       -0.0435112400
    9       -0.0039520000
   10        0.0001771600
   11       -0.9149471900
   12        0.0000000000
   13       -0.0000000000
   14        0.2978312500
   15        0.0000000000
   16        0.0000000000
   17       -0.4527147500
   18       -0.0000000000
   19       -0.0000000000
   20        0.0354038300
   21        0.0000000000
   22        0.0000000000
   23       -0.3896357900
   24       -0.0287349300
   25       -0.0287349300
   26        0.0000000000
   27       -0.0000000000
   28        0.0000000000
   29       -0.0005443800
   30       -0.0951237600
   31       -0.0951237600
   32        0.0000000000
   33        0.0000000000
   34       -0.0000000000
   35        0.6094401400
   36        0.1425921400
   37       -0.9379324700
   38        0.5299658200
   39        0.0985815000
   40        0.1289181300
   41        0.0472872400
   42       -0.0435112400
   43       -0.0039520000
   44        0.0001771600
   45        0.9149471900
   46       -0.0000000000
   47        0.0000000000
   48       -0.2978312500
   49       -0.0000000000
   50       -0.0000000000
   51        0.4527147500
   52        0.0000000000
   53        0.0000000000
   54       -0.0354038300
   55        0.0000000000
   56        0.0000000000
   57       -0.3896357900
   58       -0.0287349300
   59       -0.0287349300
   60        0.0000000000
   61       -0.0000000000
   62       -0.0000000000
   63       -0.0005443800
   64       -0.0951237600
   65       -0.0951237600
   66        0.0000000000
   67        0.0000000000
   68        0.0000000000
 Ene=          0.00935716
 Spin= Alpha
 Occup=        0.00000000
    1       -0.0000000000
    2        0.0000000000
    3       -0.0000000000
    4        0.0000000000
    5        0.0000000000
    6        0.0000000000
    7        0.0000000000
    8       -0.0000000000
    9       -0.0000000000
   10        0.0000000000
   11        0.0000000000
   12        0.0244540600
   13       -0.0276695700
   14        0.0000000000
   15       -0.0680642200
   16        0.0770141000
   17       -0.0000000000
   18        0.2256102700
   19       -0.2552761400
   20       -0.0000000000
   21        0.2612718800
   22       -0.2956269600
   23        0.0000000000
   24        0.0000000000
   25        0.0000000000
   26       -0.0200950200
   27        0.0227373400
   28        0.0000000000
   29        0.0000000000
   30        0.0000000000
   31        0.0000000000
   32        0.0400106000
   33       -0.0452716600
   34       -0.0000000000
   35        0.0000000000
   36       -0.0000000000
   37        0.0000000000
   38       -0.0000000000
   39        0.0000000000
   40       -0.0000000000
   41       -0.0000000000
   42        0.0000000000
   43        0.0000000000
   44       -0.0000000000
   45       -0.0000000000
   46        0.0244540600
   47       -0.0276695700
   48        0.0000000000
   49       -0.0680642200
   50        0.0770141000
   51       -0.0000000000
   52        0.2256102700
   53       -0.2552761400
   54        0.0000000000
   55        0.2612718800
   56       -0.2956269600
   57        0.0000000000
   58       -0.0000000000
   59       -0.0000000000
   60        0.0200950200
   61       -0.0227373400
   62       -0.0000000000
   63       -0.0000000000
   64       -0.0000000000
   65       -0.0000000000
   66       -0.0400106000
   67        0.0452716600
   68        0.0000000000
 Ene=          0.00935716
 Spin= Alpha
 Occup=        0.00000000
    1        0.0000000000
    2       -0.0000000000
    3        0.0000000000
    4       -0.0000000000
    5       -0.0000000000
    6       -0.0000000000
    7       -0.0000000000
    8        0.0000000000
    9        0.0000000000
   10       -0.0000000000
   11       -0.0000000000
   12        0.0276695700
   13        0.0244540600
   14       -0.0000000000
   15       -0.0770141000
   16       -0.0680642200
   17        0.0000000000
   18        0.2552761400
   19        0.2256102700
   20        0.0000000000
   21        0.2956269600
   22        0.2612718800
   23       -0.0000000000
   24       -0.0000000000
   25       -0.0000000000
   26       -0.0227373400
   27       -0.0200950200
   28       -0.0000000000
   29       -0.0000000000
   30       -0.0000000000
   31       -0.0000000000
   32        0.0452716600
   33        0.0400106000
   34        0.0000000000
   35       -0.0000000000
   36        0.0000000000
   37       -0.0000000000
   38        0.0000000000
   39       -0.0000000000
   40        0.0000000000
   41        0.0000000000
   42       -0.0000000000
   43       -0.0000000000
   44       -0.0000000000
   45       -0.0000000000
   46        0.0276695700
   47        0.0244540600
   48       -0.0000000000
   49       -0.0770141000
   50       -0.0680642200
   51        0.0000000000
   52        0.2552761400
   53        0.2256102700
   54       -0.0000000000
   55        0.2956269600
   56        0.2612718800
   57        0.0000000000
   58        0.0000000000
   59        0.0000000000
   60        0.0227373400
   61        0.0200950200
   62       -0.0000000000
   63        0.0000000000
   64        0.0000000000
   65        0.0000000000
   66       -0.0452716600
   67       -0.0400106000
   68        0.0000000000
 Ene=          0.01055460
 Spin= Alpha
 Occup=        0.00000000
    1        0.0991573200
    2      -10.6333299200
    3        1.4314112400
    4        0.2709159300
    5       -0.5741157700
    6       -0.0553331700
    7       -0.0871693300
    8        0.0608681100
    9        0.0026091300
   10        0.0001742000
   11        0.0993561100
   12        0.0000000000
   13       -0.0000000000
   14       -4.5815181300
   15       -0.0000000000
   16        0.0000000000
   17        0.5274062500
   18        0.0000000000
   19       -0.0000000000
   20        0.4451750600
   21        0.0000000000
   22       -0.0000000000
   23        0.0854682500
   24        0.0630263700
   25        0.0630263700
   26        0.0000000000
   27       -0.0000000000
   28        0.0000000000
   29       -0.9480016100
   30        0.1111297200
   31        0.1111297200
   32       -0.0000000000
   33        0.0000000000
   34       -0.0000000000
   35       -0.0991573200
   36       10.6333299200
   37       -1.4314112400
   38       -0.2709159300
   39        0.5741157700
   40        0.0553331700
   41        0.0871693300
   42       -0.0608681100
   43       -0.0026091300
   44       -0.0001742000
   45        0.0993561100
   46       -0.0000000000
   47        0.0000000000
   48       -4.5815181300
   49        0.0000000000
   50       -0.0000000000
   51        0.5274062500
   52       -0.0000000000
   53       -0.0000000000
   54        0.4451750600
   55       -0.0000000000
   56        0.0000000000
   57       -0.0854682500
   58       -0.0630263700
   59       -0.0630263700
   60        0.0000000000
   61       -0.0000000000
   62       -0.0000000000
   63        0.9480016100
   64       -0.1111297200
   65       -0.1111297200
   66       -0.0000000000
   67        0.0000000000
   68        0.0000000000
 Ene=          0.01112900
 Spin= Alpha
 Occup=        0.00000000
    1        0.2491205400
    2       -0.2723180900
    3       -0.5542571100
    4        1.4155408200
    5       -0.7719326500
    6        0.0510066800
    7       -0.0895134300
    8        0.0515300800
    9        0.0000346300
   10        0.0004573800
   11       -1.1358187700
   12        0.0000000000
   13       -0.0000000000
   14        0.3056567900
   15       -0.0000000000
   16        0.0000000000
   17       -0.6641432600
   18        0.0000000000
   19       -0.0000000000
   20        0.8017468200
   21       -0.0000000000
   22       -0.0000000000
   23       -0.4117352300
   24        0.0383394100
   25        0.0383394100
   26        0.0000000000
   27       -0.0000000000
   28        0.0000000000
   29        0.2043639800
   30        0.1283606100
   31        0.1283606100
   32       -0.0000000000
   33        0.0000000000
   34       -0.0000000000
   35        0.2491205400
   36       -0.2723180900
   37       -0.5542571100
   38        1.4155408200
   39       -0.7719326500
   40        0.0510066800
   41       -0.0895134300
   42        0.0515300800
   43        0.0000346300
   44        0.0004573800
   45        1.1358187700
   46       -0.0000000000
   47        0.0000000000
   48       -0.3056567900
   49        0.0000000000
   50       -0.0000000000
   51        0.6641432600
   52       -0.0000000000
   53       -0.0000000000
   54       -0.8017468200
   55        0.0000000000
   56        0.0000000000
   57       -0.4117352300
   58        0.0383394100
   59        0.0383394100
   60        0.0000000000
   61       -0.0000000000
   62       -0.0000000000
   63        0.2043639800
   64        0.1283606100
   65        0.1283606100
   66       -0.0000000000
   67        0.0000000000
   68        0.0000000000
 Ene=          0.01155490
 Spin= Alpha
 Occup=        0.00000000
    1       -0.0000000000
    2        0.0000000000
    3       -0.0000000000
    4        0.0000000000
    5       -0.0000000000
    6       -0.0000000000
    7       -0.0000000000
    8        0.0000000000
    9       -0.0000000000
   10        0.0000000000
   11        0.0000000000
   12       -0.0132983700
   13       -0.1421070200
   14        0.0000000000
   15        0.0098404800
   16        0.1051558300
   17       -0.0000000000
   18       -0.0015447800
   19       -0.0165076100
   20        0.0000000000
   21        0.0687300600
   22        0.7344529600
   23        0.0000000000
   24        0.0000000000
   25        0.0000000000
   26       -0.0033471500
   27       -0.0357678200
   28       -0.0000000000
   29        0.0000000000
   30        0.0000000000
   31        0.0000000000
   32        0.0043032500
   33        0.0459847900
   34       -0.0000000000
   35        0.0000000000
   36       -0.0000000000
   37        0.0000000000
   38       -0.0000000000
   39        0.0000000000
   40        0.0000000000
   41        0.0000000000
   42       -0.0000000000
   43       -0.0000000000
   44        0.0000000000
   45       -0.0000000000
   46        0.0132983700
   47        0.1421070200
   48        0.0000000000
   49       -0.0098404800
   50       -0.1051558300
   51       -0.0000000000
   52        0.0015447800
   53        0.0165076100
   54        0.0000000000
   55       -0.0687300600
   56       -0.7344529600
   57        0.0000000000
   58       -0.0000000000
   59       -0.0000000000
   60       -0.0033471500
   61       -0.0357678200
   62        0.0000000000
   63       -0.0000000000
   64       -0.0000000000
   65       -0.0000000000
   66        0.0043032500
   67        0.0459847900
   68       -0.0000000000
 Ene=          0.01155490
 Spin= Alpha
 Occup=        0.00000000
    1       -0.0000000000
    2       -0.0000000000
    3        0.0000000000
    4       -0.0000000000
    5        0.0000000000
    6        0.0000000000
    7        0.0000000000
    8       -0.0000000000
    9        0.0000000000
   10       -0.0000000000
   11        0.0000000000
   12       -0.1421070200
   13        0.0132983700
   14       -0.0000000000
   15        0.1051558300
   16       -0.0098404800
   17        0.0000000000
   18       -0.0165076100
   19        0.0015447800
   20       -0.0000000000
   21        0.7344529600
   22       -0.0687300600
   23        0.0000000000
   24       -0.0000000000
   25       -0.0000000000
   26       -0.0357678200
   27        0.0033471500
   28        0.0000000000
   29       -0.0000000000
   30       -0.0000000000
   31       -0.0000000000
   32        0.0459847900
   33       -0.0043032500
   34       -0.0000000000
   35       -0.0000000000
   36        0.0000000000
   37       -0.0000000000
   38        0.0000000000
   39       -0.0000000000
   40       -0.0000000000
   41       -0.0000000000
   42        0.0000000000
   43       -0.0000000000
   44        0.0000000000
   45       -0.0000000000
   46        0.1421070200
   47       -0.0132983700
   48       -0.0000000000
   49       -0.1051558300
   50        0.0098404800
   51        0.0000000000
   52        0.0165076100
   53       -0.0015447800
   54       -0.0000000000
   55       -0.7344529600
   56        0.0687300600
   57        0.0000000000
   58        0.0000000000
   59        0.0000000000
   60       -0.0357678200
   61        0.0033471500
   62       -0.0000000000
   63        0.0000000000
   64        0.0000000000
   65        0.0000000000
   66        0.0459847900
   67       -0.0043032500
   68       -0.0000000000
 Ene=          0.01625450
 Spin= Alpha
 Occup=        0.00000000
    1        0.0000000000
    2       -0.0000000000
    3        0.0000000000
    4       -0.0000000000
    5        0.0000000000
    6       -0.0000000000
    7        0.0000000000
    8       -0.0000000000
    9       -0.0000000000
   10       -0.0000000000
   11        0.0000000000
   12        0.0764817800
   13       -0.0116755600
   14       -0.0000000000
   15       -0.2310261900
   16        0.0352680100
   17        0.0000000000
   18        0.9611542500
   19       -0.1467279600
   20       -0.0000000000
   21       -0.9452411600
   22        0.1442987000
   23        0.0000000000
   24       -0.0000000000
   25       -0.0000000000
   26       -0.0477863900
   27        0.0072949800
   28        0.0000000000
   29       -0.0000000000
   30       -0.0000000000
   31       -0.0000000000
   32        0.1074405800
   33       -0.0164016700
   34       -0.0000000000
   35       -0.0000000000
   36        0.0000000000
   37       -0.0000000000
   38        0.0000000000
   39       -0.0000000000
   40        0.0000000000
   41       -0.0000000000
   42        0.0000000000
   43       -0.0000000000
   44       -0.0000000000
   45       -0.0000000000
   46        0.0764817800
   47       -0.0116755600
   48       -0.0000000000
   49       -0.2310261900
   50        0.0352680100
   51        0.0000000000
   52        0.9611542500
   53       -0.1467279600
   54       -0.0000000000
   55       -0.9452411600
   56        0.1442987000
   57        0.0000000000
   58        0.0000000000
   59        0.0000000000
   60        0.0477863900
   61       -0.0072949800
   62       -0.0000000000
   63        0.0000000000
   64        0.0000000000
   65        0.0000000000
   66       -0.1074405800
   67        0.0164016700
   68        0.0000000000
 Ene=          0.01625450
 Spin= Alpha
 Occup=        0.00000000
    1        0.0000000000
    2       -0.0000000000
    3        0.0000000000
    4       -0.0000000000
    5        0.0000000000
    6       -0.0000000000
    7        0.0000000000
    8       -0.0000000000
    9        0.0000000000
   10       -0.0000000000
   11       -0.0000000000
   12       -0.0116755600
   13       -0.0764817800
   14       -0.0000000000
   15        0.0352680100
   16        0.2310261900
   17        0.0000000000
   18       -0.1467279600
   19       -0.9611542500
   20       -0.0000000000
   21        0.1442987000
   22        0.9452411600
   23       -0.0000000000
   24       -0.0000000000
   25       -0.0000000000
   26        0.0072949800
   27        0.0477863900
   28        0.0000000000
   29       -0.0000000000
   30       -0.0000000000
   31       -0.0000000000
   32       -0.0164016700
   33       -0.1074405800
   34       -0.0000000000
   35       -0.0000000000
   36        0.0000000000
   37       -0.0000000000
   38        0.0000000000
   39       -0.0000000000
   40        0.0000000000
   41       -0.0000000000
   42        0.0000000000
   43        0.0000000000
   44       -0.0000000000
   45        0.0000000000
   46       -0.0116755600
   47       -0.0764817800
   48       -0.0000000000
   49        0.0352680100
   50        0.2310261900
   51        0.0000000000
   52       -0.1467279600
   53       -0.9611542500
   54       -0.0000000000
   55        0.1442987000
   56        0.9452411600
   57        0.0000000000
   58        0.0000000000
   59        0.0000000000
   60       -0.0072949800
   61       -0.0477863900
   62       -0.0000000000
   63        0.0000000000
   64        0.0000000000
   65        0.0000000000
   66        0.0164016700
   67        0.1074405800
   68        0.0000000000
 Ene=          0.01674790
 Spin= Alpha
 Occup=        0.00000000
    1        0.2774655000
    2      -23.4613946300
    3        2.6001636400
    4       -1.3766569200
    5        0.4660226600
    6       -0.0490282700
    7        0.0401308400
    8       -0.0205401100
    9        0.0005601800
   10       -0.0002646400
   11        0.0007950700
   12        0.0000000000
   13        0.0000000000
   14      -10.3799660700
   15       -0.0000000000
   16        0.0000000000
   17        1.5523610100
   18        0.0000000000
   19        0.0000000000
   20       -0.8000636900
   21       -0.0000000000
   22       -0.0000000000
   23       -0.0312610100
   24       -0.0326178700
   25       -0.0326178700
   26        0.0000000000
   27        0.0000000000
   28        0.0000000000
   29       -2.5230467500
   30       -0.1573358000
   31       -0.1573358000
   32       -0.0000000000
   33        0.0000000000
   34       -0.0000000000
   35       -0.2774655000
   36       23.4613946300
   37       -2.6001636400
   38        1.3766569200
   39       -0.4660226600
   40        0.0490282700
   41       -0.0401308400
   42        0.0205401100
   43       -0.0005601800
   44        0.0002646400
   45        0.0007950700
   46       -0.0000000000
   47       -0.0000000000
   48      -10.3799660700
   49        0.0000000000
   50       -0.0000000000
   51        1.5523610100
   52       -0.0000000000
   53        0.0000000000
   54       -0.8000636900
   55        0.0000000000
   56       -0.0000000000
   57        0.0312610100
   58        0.0326178700
   59        0.0326178700
   60        0.0000000000
   61        0.0000000000
   62       -0.0000000000
   63        2.5230467500
   64        0.1573358000
   65        0.1573358000
   66       -0.0000000000
   67        0.0000000000
   68        0.0000000000
 Ene=          0.01863960
 Spin= Alpha
 Occup=        0.00000000
    1        0.1851645000
    2        0.0234285900
    3       -0.2013650400
    4        1.1658760500
    5       -0.7237619600
    6       -0.0226020000
    7       -0.0756703600
    8        0.0501175300
    9        0.0016991100
   10        0.0002119300
   11       -0.3544820700
   12       -0.0000000000
   13        0.0000000000
   14        0.0510720900
   15        0.0000000000
   16        0.0000000000
   17       -0.1694581900
   18       -0.0000000000
   19       -0.0000000000
   20       -0.3136354800
   21       -0.0000000000
   22        0.0000000000
   23       -0.1409636200
   24       -0.0050010400
   25       -0.0050010400
   26       -0.0000000000
   27        0.0000000000
   28        0.0000000000
   29       -0.0202187400
   30       -0.0055110200
   31       -0.0055110200
   32        0.0000000000
   33        0.0000000000
   34       -0.0000000000
   35        0.1851645000
   36        0.0234285900
   37       -0.2013650400
   38        1.1658760500
   39       -0.7237619600
   40       -0.0226020000
   41       -0.0756703600
   42        0.0501175300
   43        0.0016991100
   44        0.0002119300
   45        0.3544820700
   46        0.0000000000
   47       -0.0000000000
   48       -0.0510720900
   49       -0.0000000000
   50       -0.0000000000
   51        0.1694581900
   52        0.0000000000
   53       -0.0000000000
   54        0.3136354800
   55       -0.0000000000
   56        0.0000000000
   57       -0.1409636200
   58       -0.0050010400
   59       -0.0050010400
   60       -0.0000000000
   61        0.0000000000
   62       -0.0000000000
   63       -0.0202187300
   64       -0.0055110200
   65       -0.0055110200
   66        0.0000000000
   67        0.0000000000
   68       -0.0000000000
 Ene=          0.02096270
 Spin= Alpha
 Occup=        0.00000000
    1       -0.1400849500
    2       13.0821585500
    3       -2.5538275100
    4        2.1122290500
    5       -0.9315507400
    6       -0.0090145100
    7       -0.0856957700
    8        0.0550874400
    9        0.0015477000
   10        0.0002796700
   11       -0.0582071600
   12       -0.0000000000
   13       -0.0000000000
   14        5.7419153300
   15        0.0000000000
   16        0.0000000000
   17       -1.2047721200
   18       -0.0000000000
   19       -0.0000000000
   20       -0.2685215300
   21        0.0000000000
   22        0.0000000000
   23       -0.0289116500
   24       -0.0352091200
   25       -0.0352091200
   26       -0.0000000000
   27       -0.0000000000
   28       -0.0000000000
   29        1.2901740400
   30        0.0089576800
   31        0.0089576800
   32        0.0000000000
   33       -0.0000000000
   34        0.0000000000
   35        0.1400849500
   36      -13.0821585500
   37        2.5538275100
   38       -2.1122290500
   39        0.9315507400
   40        0.0090145100
   41        0.0856957700
   42       -0.0550874400
   43       -0.0015477000
   44       -0.0002796700
   45       -0.0582071600
   46        0.0000000000
   47        0.0000000000
   48        5.7419153300
   49       -0.0000000000
   50        0.0000000000
   51       -1.2047721200
   52        0.0000000000
   53        0.0000000000
   54       -0.2685215300
   55       -0.0000000000
   56       -0.0000000000
   57        0.0289116500
   58        0.0352091200
   59        0.0352091200
   60       -0.0000000000
   61       -0.0000000000
   62        0.0000000000
   63       -1.2901740400
   64       -0.0089576800
   65       -0.0089576800
   66        0.0000000000
   67       -0.0000000000
   68       -0.0000000000
 Ene=          0.02279630
 Spin= Alpha
 Occup=        0.00000000
    1       -0.0000000000
    2        0.0000000000
    3       -0.0000000000
    4       -0.0000000000
    5        0.0000000000
    6       -0.0000000000
    7        0.0000000000
    8       -0.0000000000
    9        0.0000000000
   10       -0.0000000000
   11        0.0000000000
   12       -3.9414511300
   13        0.7160076900
   14        0.0000000000
   15        0.9372503600
   16       -0.1702617700
   17       -0.0000000000
   18       -1.5538297100
   19        0.2822701500
   20        0.0000000000
   21        0.7860069700
   22       -0.1427867600
   23        0.0000000000
   24        0.0000000000
   25        0.0000000000
   26       -0.8625751000
   27        0.1566962000
   28        0.0000000000
   29        0.0000000000
   30        0.0000000000
   31        0.0000000000
   32        0.1470261700
   33       -0.0267089100
   34       -0.0000000000
   35        0.0000000000
   36       -0.0000000000
   37        0.0000000000
   38        0.0000000000
   39       -0.0000000000
   40        0.0000000000
   41       -0.0000000000
   42        0.0000000000
   43       -0.0000000000
   44        0.0000000000
   45       -0.0000000000
   46        3.9414511300
   47       -0.7160076900
   48        0.0000000000
   49       -0.9372503600
   50        0.1702617700
   51       -0.0000000000
   52        1.5538297100
   53       -0.2822701500
   54        0.0000000000
   55       -0.7860069700
   56        0.1427867600
   57        0.0000000000
   58       -0.0000000000
   59       -0.0000000000
   60       -0.8625751000
   61        0.1566962000
   62       -0.0000000000
   63       -0.0000000000
   64       -0.0000000000
   65       -0.0000000000
   66        0.1470261700
   67       -0.0267089100
   68       -0.0000000000
 Ene=          0.02279630
 Spin= Alpha
 Occup=        0.00000000
    1        0.0000000000
    2       -0.0000000000
    3       -0.0000000000
    4        0.0000000000
    5       -0.0000000000
    6       -0.0000000000
    7       -0.0000000000
    8        0.0000000000
    9       -0.0000000000
   10        0.0000000000
   11       -0.0000000000
   12        0.7160076900
   13        3.9414511300
   14       -0.0000000000
   15       -0.1702617700
   16       -0.9372503600