 Molden2AIM, Version 3.1.0 (02/25/2015)           Time: Thu Oct 17 19:52:57 2024
GAUSSIAN             68 MOL ORBITALS     68 PRIMITIVES        2 NUCLEI
  Be   1    (CENTRE  1)   0.00000000  0.00000000  0.00000000  CHARGE =  4.0
  Be   2    (CENTRE  2)  13.60000000  0.00000000  0.00000000  CHARGE =  4.0
CENTRE ASSIGNMENTS    1  1  1  1  1  1  1  1  1  1  1  1  1  1  1  1  1  1  1  1
CENTRE ASSIGNMENTS    1  1  1  1  1  1  1  1  1  1  1  1  1  1  2  2  2  2  2  2
CENTRE ASSIGNMENTS    2  2  2  2  2  2  2  2  2  2  2  2  2  2  2  2  2  2  2  2
CENTRE ASSIGNMENTS    2  2  2  2  2  2  2  2
TYPE ASSIGNMENTS      1  1  1  1  1  1  1  1  1  1  2  3  4  2  3  4  2  3  4  2
TYPE ASSIGNMENTS      3  4  5  6  7  8  9 10  5  6  7  8  9 10  1  1  1  1  1  1
TYPE ASSIGNMENTS      1  1  1  1  2  3  4  2  3  4  2  3  4  2  3  4  5  6  7  8
TYPE ASSIGNMENTS      9 10  5  6  7  8  9 10
EXPONENTS  0.1000000D-03 0.3000000D-03 0.9000000D-03 0.2700000D-02 0.8100000D-02
EXPONENTS  0.2430000D-01 0.7290000D-01 0.2187000D+00 0.6561000D+00 0.1968300D+01
EXPONENTS  0.1000000D-03 0.1000000D-03 0.1000000D-03 0.3000000D-03 0.3000000D-03
EXPONENTS  0.3000000D-03 0.9000000D-03 0.9000000D-03 0.9000000D-03 0.2700000D-02
EXPONENTS  0.2700000D-02 0.2700000D-02 0.1000000D-03 0.1000000D-03 0.1000000D-03
EXPONENTS  0.1000000D-03 0.1000000D-03 0.1000000D-03 0.3000000D-03 0.3000000D-03
EXPONENTS  0.3000000D-03 0.3000000D-03 0.3000000D-03 0.3000000D-03 0.1000000D-03
EXPONENTS  0.3000000D-03 0.9000000D-03 0.2700000D-02 0.8100000D-02 0.2430000D-01
EXPONENTS  0.7290000D-01 0.2187000D+00 0.6561000D+00 0.1968300D+01 0.1000000D-03
EXPONENTS  0.1000000D-03 0.1000000D-03 0.3000000D-03 0.3000000D-03 0.3000000D-03
EXPONENTS  0.9000000D-03 0.9000000D-03 0.9000000D-03 0.2700000D-02 0.2700000D-02
EXPONENTS  0.2700000D-02 0.1000000D-03 0.1000000D-03 0.1000000D-03 0.1000000D-03
EXPONENTS  0.1000000D-03 0.1000000D-03 0.3000000D-03 0.3000000D-03 0.3000000D-03
EXPONENTS  0.3000000D-03 0.3000000D-03 0.3000000D-03
MO    1     MO 0.0        OCC NO =    1.0000000  ORB. ENERGY =   -0.006946
  0.76558822D-05  0.16813025D-03 -0.14010857D-03 -0.10133471D-02 -0.48823747D-02
 -0.92365773D-02 -0.12141636D-01  0.23052097D-01  0.38921970D-02 -0.21974354D-03
  0.74380651D-07  0.00000000D+00  0.00000000D+00 -0.20294259D-04  0.00000000D+00
 -0.00000000D+00  0.49727221D-05 -0.00000000D+00  0.00000000D+00 -0.26395833D-04
  0.00000000D+00 -0.00000000D+00 -0.17324819D-09 -0.24993173D-09 -0.24993173D-09
  0.00000000D+00  0.00000000D+00 -0.00000000D+00 -0.89966261D-07 -0.78318357D-08
 -0.78318357D-08  0.00000000D+00 -0.00000000D+00  0.00000000D+00  0.76558822D-05
  0.16813025D-03 -0.14010857D-03 -0.10133471D-02 -0.48823747D-02 -0.92365773D-02
 -0.12141636D-01  0.23052097D-01  0.38921970D-02 -0.21974354D-03 -0.74380651D-07
 -0.00000000D+00 -0.00000000D+00  0.20294259D-04 -0.00000000D+00  0.00000000D+00
 -0.49727221D-05  0.00000000D+00 -0.00000000D+00  0.26395833D-04 -0.00000000D+00
  0.00000000D+00 -0.17324819D-09 -0.24993173D-09 -0.24993173D-09  0.00000000D+00
  0.00000000D+00  0.00000000D+00 -0.89966261D-07 -0.78318357D-08 -0.78318357D-08
  0.00000000D+00 -0.00000000D+00 -0.00000000D+00
MO    2     MO 0.0        OCC NO =    0.0000000  ORB. ENERGY =    0.000678
  0.20434620D-05  0.22298845D-05 -0.14700192D-01  0.86501271D-03 -0.74711088D-02
 -0.75759524D-02 -0.11262323D-01  0.20674271D-01  0.32226163D-02 -0.96666313D-04
 -0.53406770D-06 -0.00000000D+00 -0.00000000D+00 -0.92978258D-06 -0.00000000D+00
  0.00000000D+00 -0.14762544D-03 -0.00000000D+00 -0.00000000D+00  0.17671239D-03
  0.00000000D+00  0.00000000D+00 -0.14776871D-07 -0.18961342D-07 -0.18961342D-07
 -0.00000000D+00 -0.00000000D+00 -0.00000000D+00 -0.21998910D-06 -0.17236057D-06
 -0.17236057D-06 -0.00000000D+00  0.00000000D+00  0.00000000D+00 -0.20434620D-05
 -0.22298845D-05  0.14700192D-01 -0.86501271D-03  0.74711088D-02  0.75759524D-02
  0.11262323D-01 -0.20674271D-01 -0.32226163D-02  0.96666313D-04 -0.53406770D-06
  0.00000000D+00  0.00000000D+00 -0.92978258D-06  0.00000000D+00 -0.00000000D+00
 -0.14762544D-03  0.00000000D+00  0.00000000D+00  0.17671239D-03 -0.00000000D+00
 -0.00000000D+00  0.14776871D-07  0.18961342D-07  0.18961342D-07 -0.00000000D+00
 -0.00000000D+00  0.00000000D+00  0.21998910D-06  0.17236057D-06  0.17236057D-06
 -0.00000000D+00  0.00000000D+00 -0.00000000D+00
MO    3     MO 0.0        OCC NO =    0.0000000  ORB. ENERGY =    0.002762
 -0.11705656D-03  0.69900956D-04  0.44273872D-02 -0.62764463D-02  0.22261506D-02
 -0.51067859D-02 -0.10400660D-02  0.43405369D-02  0.16448978D-02 -0.33506330D-03
 -0.11986252D-06  0.00000000D+00  0.00000000D+00 -0.89713821D-04 -0.00000000D+00
 -0.00000000D+00  0.58974616D-04  0.00000000D+00  0.00000000D+00 -0.41020899D-04
 -0.00000000D+00 -0.00000000D+00  0.34568098D-08  0.38978068D-08  0.38978068D-08
  0.00000000D+00  0.00000000D+00 -0.00000000D+00 -0.24293699D-06  0.11442170D-06
  0.11442170D-06 -0.00000000D+00 -0.00000000D+00  0.00000000D+00 -0.11705656D-03
  0.69900956D-04  0.44273872D-02 -0.62764463D-02  0.22261506D-02 -0.51067859D-02
 -0.10400660D-02  0.43405369D-02  0.16448978D-02 -0.33506330D-03  0.11986252D-06
 -0.00000000D+00 -0.00000000D+00  0.89713821D-04  0.00000000D+00  0.00000000D+00
 -0.58974616D-04 -0.00000000D+00 -0.00000000D+00  0.41020899D-04  0.00000000D+00
  0.00000000D+00  0.34568098D-08  0.38978068D-08  0.38978068D-08  0.00000000D+00
  0.00000000D+00  0.00000000D+00 -0.24293699D-06  0.11442170D-06  0.11442170D-06
 -0.00000000D+00 -0.00000000D+00 -0.00000000D+00
MO    4     MO 0.0        OCC NO =    0.0000000  ORB. ENERGY =    0.003655
  0.00000000D+00  0.00000000D+00  0.00000000D+00 -0.00000000D+00  0.00000000D+00
 -0.00000000D+00 -0.00000000D+00  0.00000000D+00  0.00000000D+00 -0.00000000D+00
  0.00000000D+00  0.10448262D-09 -0.40609487D-06 -0.00000000D+00 -0.17485695D-08
  0.67947234D-05  0.00000000D+00  0.31499012D-07 -0.12240704D-03 -0.00000000D+00
  0.10755615D-07 -0.41786592D-04 -0.00000000D+00  0.00000000D+00  0.00000000D+00
  0.81790080D-11 -0.31783448D-07  0.00000000D+00 -0.00000000D+00 -0.00000000D+00
 -0.00000000D+00 -0.27352054D-10  0.10630823D-06 -0.00000000D+00  0.00000000D+00
  0.00000000D+00 -0.00000000D+00  0.00000000D+00 -0.00000000D+00  0.00000000D+00
  0.00000000D+00 -0.00000000D+00 -0.00000000D+00  0.00000000D+00 -0.00000000D+00
  0.10448262D-09 -0.40609487D-06  0.00000000D+00 -0.17485695D-08  0.67947234D-05
  0.00000000D+00  0.31499012D-07 -0.12240704D-03 -0.00000000D+00  0.10755615D-07
 -0.41786592D-04  0.00000000D+00 -0.00000000D+00 -0.00000000D+00 -0.81790080D-11
  0.31783448D-07 -0.00000000D+00 -0.00000000D+00  0.00000000D+00  0.00000000D+00
  0.27352054D-10 -0.10630823D-06 -0.00000000D+00
MO    5     MO 0.0        OCC NO =    0.0000000  ORB. ENERGY =    0.003655
  0.00000000D+00  0.00000000D+00 -0.00000000D+00  0.00000000D+00 -0.00000000D+00
 -0.00000000D+00 -0.00000000D+00  0.00000000D+00  0.00000000D+00 -0.00000000D+00
  0.00000000D+00  0.40609487D-06  0.10448262D-09 -0.00000000D+00 -0.67947234D-05
 -0.17485695D-08 -0.00000000D+00  0.12240704D-03  0.31499012D-07  0.00000000D+00
  0.41786592D-04  0.10755615D-07 -0.00000000D+00 -0.00000000D+00 -0.00000000D+00
  0.31783448D-07  0.81790080D-11  0.00000000D+00 -0.00000000D+00 -0.00000000D+00
 -0.00000000D+00 -0.10630823D-06 -0.27352054D-10 -0.00000000D+00  0.00000000D+00
  0.00000000D+00  0.00000000D+00 -0.00000000D+00  0.00000000D+00 -0.00000000D+00
  0.00000000D+00  0.00000000D+00  0.00000000D+00 -0.00000000D+00 -0.00000000D+00
  0.40609487D-06  0.10448262D-09  0.00000000D+00 -0.67947234D-05 -0.17485695D-08
 -0.00000000D+00  0.12240704D-03  0.31499012D-07  0.00000000D+00  0.41786592D-04
  0.10755615D-07  0.00000000D+00 -0.00000000D+00  0.00000000D+00 -0.31783448D-07
 -0.81790080D-11 -0.00000000D+00 -0.00000000D+00  0.00000000D+00  0.00000000D+00
  0.10630823D-06  0.27352054D-10 -0.00000000D+00
MO    6     MO 0.0        OCC NO =    0.0000000  ORB. ENERGY =    0.004926
 -0.86695703D-05 -0.11508690D-04  0.65429545D-01 -0.16325496D-01 -0.35448307D-02
 -0.55182369D-02 -0.66378095D-02  0.12609825D-01  0.21213416D-02 -0.10489752D-03
  0.22615030D-05  0.00000000D+00  0.00000000D+00  0.47132796D-05  0.00000000D+00
 -0.00000000D+00  0.64302150D-03 -0.00000000D+00  0.00000000D+00 -0.33997648D-03
  0.00000000D+00 -0.00000000D+00  0.62964101D-07  0.79774970D-07  0.79774970D-07
  0.00000000D+00  0.00000000D+00  0.00000000D+00  0.94990592D-06  0.75640031D-06
  0.75640031D-06  0.00000000D+00 -0.00000000D+00 -0.00000000D+00  0.86695703D-05
  0.11508690D-04 -0.65429545D-01  0.16325496D-01  0.35448307D-02  0.55182369D-02
  0.66378095D-02 -0.12609825D-01 -0.21213416D-02  0.10489752D-03  0.22615030D-05
 -0.00000000D+00 -0.00000000D+00  0.47132796D-05 -0.00000000D+00  0.00000000D+00
  0.64302150D-03  0.00000000D+00 -0.00000000D+00 -0.33997648D-03 -0.00000000D+00
  0.00000000D+00 -0.62964101D-07 -0.79774970D-07 -0.79774970D-07  0.00000000D+00
  0.00000000D+00 -0.00000000D+00 -0.94990592D-06 -0.75640031D-06 -0.75640031D-06
  0.00000000D+00 -0.00000000D+00  0.00000000D+00
MO    7     MO 0.0        OCC NO =    0.0000000  ORB. ENERGY =    0.006732
  0.19533464D-03  0.62077745D-02 -0.10878610D-02 -0.57833342D-02  0.28180872D-02
 -0.18712674D-02  0.19841708D-02 -0.18297653D-02  0.38745838D-03 -0.21003190D-03
  0.26289574D-05  0.00000000D+00  0.00000000D+00 -0.80491111D-03 -0.00000000D+00
 -0.00000000D+00  0.37182070D-03  0.00000000D+00  0.00000000D+00  0.44345322D-03
  0.00000000D+00  0.00000000D+00 -0.47387335D-08 -0.60105002D-08 -0.60105002D-08
  0.00000000D+00  0.00000000D+00 -0.00000000D+00 -0.34349653D-05 -0.21293269D-06
 -0.21293269D-06 -0.00000000D+00 -0.00000000D+00  0.00000000D+00  0.19533464D-03
  0.62077745D-02 -0.10878610D-02 -0.57833342D-02  0.28180872D-02 -0.18712674D-02
  0.19841708D-02 -0.18297653D-02  0.38745838D-03 -0.21003190D-03 -0.26289574D-05
 -0.00000000D+00 -0.00000000D+00  0.80491111D-03  0.00000000D+00  0.00000000D+00
 -0.37182070D-03 -0.00000000D+00 -0.00000000D+00 -0.44345322D-03 -0.00000000D+00
 -0.00000000D+00 -0.47387335D-08 -0.60105002D-08 -0.60105002D-08  0.00000000D+00
  0.00000000D+00  0.00000000D+00 -0.34349653D-05 -0.21293269D-06 -0.21293269D-06
 -0.00000000D+00 -0.00000000D+00 -0.00000000D+00
MO    8     MO 0.0        OCC NO =    0.0000000  ORB. ENERGY =    0.006854
  0.00000000D+00 -0.00000000D+00  0.00000000D+00 -0.00000000D+00  0.00000000D+00
 -0.00000000D+00  0.00000000D+00 -0.00000000D+00  0.00000000D+00 -0.00000000D+00
 -0.00000000D+00  0.10502600D-04 -0.57982068D-06 -0.00000000D+00  0.79005365D-03
 -0.43616769D-04  0.00000000D+00 -0.44532399D-03  0.24585159D-04  0.00000000D+00
 -0.52359422D-03  0.28906251D-04 -0.00000000D+00 -0.00000000D+00 -0.00000000D+00
  0.21150424D-07 -0.11676596D-08 -0.00000000D+00 -0.00000000D+00 -0.00000000D+00
 -0.00000000D+00  0.30786424D-05 -0.16996370D-06  0.00000000D+00 -0.00000000D+00
  0.00000000D+00 -0.00000000D+00 -0.00000000D+00  0.00000000D+00 -0.00000000D+00
  0.00000000D+00 -0.00000000D+00  0.00000000D+00 -0.00000000D+00  0.00000000D+00
 -0.10502600D-04  0.57982068D-06 -0.00000000D+00 -0.79005365D-03  0.43616769D-04
 -0.00000000D+00  0.44532399D-03 -0.24585159D-04 -0.00000000D+00  0.52359422D-03
 -0.28906251D-04 -0.00000000D+00  0.00000000D+00  0.00000000D+00  0.21150424D-07
 -0.11676596D-08  0.00000000D+00  0.00000000D+00  0.00000000D+00  0.00000000D+00
  0.30786424D-05 -0.16996370D-06 -0.00000000D+00
MO    9     MO 0.0        OCC NO =    0.0000000  ORB. ENERGY =    0.006854
  0.00000000D+00  0.00000000D+00 -0.00000000D+00 -0.00000000D+00 -0.00000000D+00
 -0.00000000D+00 -0.00000000D+00  0.00000000D+00  0.00000000D+00 -0.00000000D+00
 -0.00000000D+00  0.57982068D-06  0.10502600D-04  0.00000000D+00  0.43616769D-04
  0.79005365D-03 -0.00000000D+00 -0.24585159D-04 -0.44532399D-03 -0.00000000D+00
 -0.28906251D-04 -0.52359422D-03 -0.00000000D+00  0.00000000D+00  0.00000000D+00
  0.11676596D-08  0.21150424D-07  0.00000000D+00 -0.00000000D+00  0.00000000D+00
  0.00000000D+00  0.16996370D-06  0.30786424D-05 -0.00000000D+00  0.00000000D+00
 -0.00000000D+00  0.00000000D+00  0.00000000D+00  0.00000000D+00 -0.00000000D+00
  0.00000000D+00 -0.00000000D+00  0.00000000D+00 -0.00000000D+00  0.00000000D+00
 -0.57982068D-06 -0.10502600D-04  0.00000000D+00 -0.43616769D-04 -0.79005365D-03
 -0.00000000D+00  0.24585159D-04  0.44532399D-03 -0.00000000D+00  0.28906251D-04
  0.52359422D-03 -0.00000000D+00 -0.00000000D+00 -0.00000000D+00  0.11676596D-08
  0.21150424D-07 -0.00000000D+00 -0.00000000D+00 -0.00000000D+00 -0.00000000D+00
  0.16996370D-06  0.30786424D-05  0.00000000D+00
MO   10     MO 0.0        OCC NO =    0.0000000  ORB. ENERGY =    0.009428
 -0.00000000D+00 -0.00000000D+00  0.00000000D+00  0.00000000D+00  0.00000000D+00
  0.00000000D+00  0.00000000D+00 -0.00000000D+00 -0.00000000D+00 -0.00000000D+00
 -0.00000000D+00  0.61862835D-10  0.42796467D-06  0.00000000D+00 -0.10417130D-08
 -0.71991371D-05  0.00000000D+00  0.21973316D-07  0.15189081D-03  0.00000000D+00
 -0.10062554D-06 -0.69555314D-03 -0.00000000D+00 -0.00000000D+00 -0.00000000D+00
  0.42477246D-11  0.29360669D-07 -0.00000000D+00  0.00000000D+00 -0.00000000D+00
 -0.00000000D+00 -0.12243115D-10 -0.84575652D-07  0.00000000D+00 -0.00000000D+00
 -0.00000000D+00 -0.00000000D+00 -0.00000000D+00  0.00000000D+00 -0.00000000D+00
 -0.00000000D+00  0.00000000D+00  0.00000000D+00  0.00000000D+00  0.00000000D+00
  0.61862835D-10  0.42796467D-06 -0.00000000D+00 -0.10417130D-08 -0.71991371D-05
  0.00000000D+00  0.21973316D-07  0.15189081D-03  0.00000000D+00 -0.10062554D-06
 -0.69555314D-03  0.00000000D+00  0.00000000D+00  0.00000000D+00 -0.42477246D-11
 -0.29360669D-07  0.00000000D+00  0.00000000D+00  0.00000000D+00  0.00000000D+00
  0.12243115D-10  0.84575652D-07 -0.00000000D+00
MO   11     MO 0.0        OCC NO =    0.0000000  ORB. ENERGY =    0.009428
 -0.00000000D+00 -0.00000000D+00  0.00000000D+00  0.00000000D+00 -0.00000000D+00
  0.00000000D+00  0.00000000D+00 -0.00000000D+00 -0.00000000D+00  0.00000000D+00
 -0.00000000D+00  0.42796467D-06 -0.61862835D-10  0.00000000D+00 -0.71991371D-05
  0.10417130D-08  0.00000000D+00  0.15189081D-03 -0.21973316D-07  0.00000000D+00
 -0.69555314D-03  0.10062554D-06 -0.00000000D+00 -0.00000000D+00 -0.00000000D+00
  0.29360669D-07 -0.42477246D-11 -0.00000000D+00  0.00000000D+00 -0.00000000D+00
 -0.00000000D+00 -0.84575652D-07  0.12243115D-10  0.00000000D+00 -0.00000000D+00
 -0.00000000D+00 -0.00000000D+00 -0.00000000D+00  0.00000000D+00 -0.00000000D+00
 -0.00000000D+00 -0.00000000D+00  0.00000000D+00 -0.00000000D+00  0.00000000D+00
  0.42796467D-06 -0.61862835D-10 -0.00000000D+00 -0.71991371D-05  0.10417130D-08
  0.00000000D+00  0.15189081D-03 -0.21973316D-07  0.00000000D+00 -0.69555314D-03
  0.10062554D-06  0.00000000D+00  0.00000000D+00  0.00000000D+00 -0.29360669D-07
  0.42477246D-11  0.00000000D+00  0.00000000D+00  0.00000000D+00  0.00000000D+00
  0.84575652D-07 -0.12243115D-10 -0.00000000D+00
MO   12     MO 0.0        OCC NO =    0.0000000  ORB. ENERGY =    0.010420
 -0.17148620D-05 -0.10495961D-03 -0.22455892D+00 -0.86742879D-01  0.21031289D-02
 -0.23802449D-02 -0.12312415D-02  0.29358654D-02  0.70381986D-03 -0.90768270D-04
  0.55572724D-06 -0.00000000D+00 -0.00000000D+00  0.13628085D-04 -0.00000000D+00
  0.00000000D+00 -0.27670679D-02  0.00000000D+00 -0.00000000D+00 -0.42332299D-02
 -0.00000000D+00  0.00000000D+00  0.53312461D-07 -0.12934262D-07 -0.12934262D-07
 -0.00000000D+00 -0.00000000D+00  0.00000000D+00  0.29108188D-06  0.97457625D-06
  0.97457625D-06 -0.00000000D+00  0.00000000D+00  0.00000000D+00  0.17148620D-05
  0.10495961D-03  0.22455892D+00  0.86742879D-01 -0.21031289D-02  0.23802449D-02
  0.12312415D-02 -0.29358654D-02 -0.70381986D-03  0.90768270D-04  0.55572724D-06
  0.00000000D+00  0.00000000D+00  0.13628084D-04  0.00000000D+00 -0.00000000D+00
 -0.27670679D-02 -0.00000000D+00  0.00000000D+00 -0.42332299D-02  0.00000000D+00
 -0.00000000D+00 -0.53312461D-07  0.12934262D-07  0.12934262D-07 -0.00000000D+00
 -0.00000000D+00 -0.00000000D+00 -0.29108188D-06 -0.97457625D-06 -0.97457625D-06
 -0.00000000D+00  0.00000000D+00 -0.00000000D+00
MO   13     MO 0.0        OCC NO =    0.0000000  ORB. ENERGY =    0.011878
  0.97077477D-04 -0.31307350D-02  0.32260809D-02 -0.14232044D-01  0.21721923D-01
 -0.43325066D-02  0.11720987D-01 -0.14761376D-01  0.16744453D-03 -0.74085574D-03
 -0.78389933D-06 -0.00000000D+00 -0.00000000D+00  0.43192863D-03  0.00000000D+00
 -0.00000000D+00 -0.11541420D-03 -0.00000000D+00 -0.00000000D+00  0.10747173D-03
  0.00000000D+00  0.00000000D+00 -0.45230106D-08 -0.36933997D-08 -0.36933997D-08
 -0.00000000D+00 -0.00000000D+00 -0.00000000D+00  0.17301980D-05 -0.22019471D-07
 -0.22019471D-07  0.00000000D+00 -0.00000000D+00  0.00000000D+00  0.97077477D-04
 -0.31307350D-02  0.32260809D-02 -0.14232044D-01  0.21721923D-01 -0.43325066D-02
  0.11720987D-01 -0.14761376D-01  0.16744453D-03 -0.74085574D-03  0.78389933D-06
  0.00000000D+00  0.00000000D+00 -0.43192863D-03 -0.00000000D+00  0.00000000D+00
  0.11541420D-03  0.00000000D+00  0.00000000D+00 -0.10747173D-03 -0.00000000D+00
  0.00000000D+00 -0.45230106D-08 -0.36933997D-08 -0.36933997D-08 -0.00000000D+00
 -0.00000000D+00  0.00000000D+00  0.17301980D-05 -0.22019471D-07 -0.22019471D-07
  0.00000000D+00 -0.00000000D+00 -0.00000000D+00
MO   14     MO 0.0        OCC NO =    0.0000000  ORB. ENERGY =    0.014800
  0.83811312D-05  0.10086845D-03  0.10219942D+00  0.26982008D-01 -0.23698542D-01
  0.27185278D-02 -0.12647797D-01  0.17010000D-01  0.25703786D-03  0.71452773D-03
 -0.22586536D-05  0.00000000D+00 -0.00000000D+00 -0.18184901D-04  0.00000000D+00
 -0.56278389D-12  0.15143704D-02 -0.00000000D+00  0.00000000D+00  0.47260341D-04
  0.00000000D+00 -0.00000000D+00 -0.90976003D-07 -0.52818497D-07 -0.52818497D-07
  0.00000000D+00 -0.00000000D+00 -0.00000000D+00 -0.11086890D-05 -0.14695957D-05
 -0.14695957D-05  0.00000000D+00 -0.00000000D+00 -0.00000000D+00 -0.83811312D-05
 -0.10086843D-03 -0.10219942D+00 -0.26982008D-01  0.23698542D-01 -0.27185278D-02
  0.12647797D-01 -0.17010000D-01 -0.25703786D-03 -0.71452773D-03 -0.22586536D-05
 -0.00000000D+00  0.00000000D+00 -0.18184900D-04 -0.00000000D+00  0.56278389D-12
  0.15143704D-02  0.00000000D+00 -0.00000000D+00  0.47260341D-04 -0.00000000D+00
  0.00000000D+00  0.90976003D-07  0.52818497D-07  0.52818497D-07  0.00000000D+00
 -0.00000000D+00  0.00000000D+00  0.11086890D-05  0.14695957D-05  0.14695957D-05
  0.00000000D+00 -0.00000000D+00  0.00000000D+00
MO   15     MO 0.0        OCC NO =    0.0000000  ORB. ENERGY =    0.014804
 -0.00000000D+00  0.00000000D+00  0.00000000D+00  0.00000000D+00 -0.00000000D+00
  0.00000000D+00 -0.00000000D+00  0.00000000D+00  0.00000000D+00  0.00000000D+00
  0.00000000D+00 -0.12076883D-04 -0.55645648D-06 -0.00000000D+00 -0.90802500D-03
 -0.41838314D-04  0.00000000D+00  0.70744067D-03  0.32596158D-04  0.00000000D+00
 -0.16560864D-02 -0.76306117D-04 -0.00000000D+00 -0.00000000D+00 -0.00000000D+00
 -0.25653135D-07 -0.11819992D-08  0.00000000D+00 -0.00000000D+00 -0.00000000D+00
 -0.00000000D+00 -0.35059602D-05 -0.16154121D-06 -0.00000000D+00  0.00000000D+00
 -0.00000000D+00 -0.00000000D+00 -0.00000000D+00  0.00000000D+00 -0.00000000D+00
  0.00000000D+00 -0.00000000D+00 -0.00000000D+00 -0.00000000D+00 -0.00000000D+00
  0.12076883D-04  0.55645648D-06  0.00000000D+00  0.90802500D-03  0.41838314D-04
  0.00000000D+00 -0.70744067D-03 -0.32596158D-04  0.00000000D+00  0.16560864D-02
  0.76306117D-04  0.00000000D+00  0.00000000D+00  0.00000000D+00 -0.25653135D-07
 -0.11819992D-08 -0.00000000D+00  0.00000000D+00  0.00000000D+00  0.00000000D+00
 -0.35059602D-05 -0.16154121D-06  0.00000000D+00
MO   16     MO 0.0        OCC NO =    0.0000000  ORB. ENERGY =    0.014804
 -0.00000000D+00  0.00000000D+00  0.37033263D-10  0.00000000D+00 -0.00000000D+00
  0.00000000D+00 -0.00000000D+00  0.00000000D+00  0.00000000D+00  0.00000000D+00
 -0.00000000D+00 -0.55645648D-06  0.12076883D-04 -0.00000000D+00 -0.41838314D-04
  0.90802500D-03  0.00000000D+00  0.32596158D-04 -0.70744067D-03  0.00000000D+00
 -0.76306117D-04  0.16560864D-02 -0.00000000D+00 -0.00000000D+00 -0.00000000D+00
 -0.11819992D-08  0.25653135D-07  0.00000000D+00 -0.00000000D+00 -0.00000000D+00
 -0.00000000D+00 -0.16154121D-06  0.35059602D-05 -0.00000000D+00  0.00000000D+00
 -0.00000000D+00 -0.37033263D-10 -0.00000000D+00  0.00000000D+00 -0.00000000D+00
  0.00000000D+00 -0.00000000D+00 -0.00000000D+00 -0.00000000D+00  0.00000000D+00
  0.55645648D-06 -0.12076883D-04 -0.00000000D+00  0.41838314D-04 -0.90802500D-03
  0.00000000D+00 -0.32596158D-04  0.70744067D-03  0.00000000D+00  0.76306117D-04
 -0.16560864D-02  0.00000000D+00  0.00000000D+00  0.00000000D+00 -0.11819992D-08
  0.25653135D-07 -0.00000000D+00  0.00000000D+00  0.00000000D+00  0.00000000D+00
 -0.16154121D-06  0.35059602D-05  0.00000000D+00
MO   17     MO 0.0        OCC NO =    0.0000000  ORB. ENERGY =    0.014859
  0.44176722D-03  0.75967460D-02 -0.53293918D-02  0.19645204D-03  0.10623827D-01
 -0.19333144D-02  0.42313397D-02 -0.51785806D-02  0.18205463D-03 -0.30166474D-03
  0.35415173D-05  0.00000000D+00  0.00000000D+00 -0.87333131D-03 -0.00000000D+00
  0.00000000D+00  0.57788325D-03 -0.00000000D+00  0.00000000D+00 -0.12721487D-02
  0.00000000D+00 -0.00000000D+00 -0.12953960D-07 -0.13936390D-07 -0.13936390D-07
  0.00000000D+00  0.00000000D+00  0.00000000D+00 -0.39128762D-05 -0.44943378D-06
 -0.44943378D-06 -0.00000000D+00  0.00000000D+00 -0.00000000D+00  0.44176722D-03
  0.75967460D-02 -0.53293918D-02  0.19645204D-03  0.10623827D-01 -0.19333144D-02
  0.42313397D-02 -0.51785806D-02  0.18205463D-03 -0.30166474D-03 -0.35415173D-05
 -0.00000000D+00 -0.00000000D+00  0.87333131D-03  0.00000000D+00 -0.00000000D+00
 -0.57788325D-03  0.00000000D+00 -0.00000000D+00  0.12721487D-02 -0.00000000D+00
  0.00000000D+00 -0.12953960D-07 -0.13936390D-07 -0.13936390D-07  0.00000000D+00
  0.00000000D+00 -0.00000000D+00 -0.39128762D-05 -0.44943378D-06 -0.44943378D-06
 -0.00000000D+00  0.00000000D+00  0.00000000D+00
MO   18     MO 0.0        OCC NO =    0.0000000  ORB. ENERGY =    0.021782
 -0.21595361D-04 -0.26569335D-03 -0.39645475D+00  0.16062856D+00 -0.25065125D-01
  0.51314611D-02 -0.85003726D-02  0.99172133D-02 -0.57092102D-03  0.65121259D-03
  0.59221637D-05 -0.00000000D+00 -0.00000000D+00  0.39494471D-04 -0.00000000D+00
  0.00000000D+00 -0.52636114D-02  0.00000000D+00 -0.00000000D+00  0.60158288D-02
  0.00000000D+00  0.00000000D+00  0.24722496D-06  0.14770752D-06  0.14770752D-06
 -0.00000000D+00 -0.00000000D+00  0.00000000D+00  0.26194154D-05  0.35900976D-05
  0.35900976D-05 -0.00000000D+00  0.00000000D+00  0.00000000D+00  0.21595361D-04
  0.26569335D-03  0.39645475D+00 -0.16062856D+00  0.25065125D-01 -0.51314611D-02
  0.85003726D-02 -0.99172133D-02  0.57092102D-03 -0.65121259D-03  0.59221637D-05
  0.00000000D+00  0.00000000D+00  0.39494471D-04  0.00000000D+00 -0.00000000D+00
 -0.52636114D-02 -0.00000000D+00  0.00000000D+00  0.60158288D-02 -0.00000000D+00
 -0.00000000D+00 -0.24722496D-06 -0.14770752D-06 -0.14770752D-06 -0.00000000D+00
 -0.00000000D+00 -0.00000000D+00 -0.26194154D-05 -0.35900976D-05 -0.35900976D-05
 -0.00000000D+00  0.00000000D+00 -0.00000000D+00
MO   19     MO 0.0        OCC NO =    0.0000000  ORB. ENERGY =    0.027183
  0.21479127D-02 -0.19220541D-02 -0.16138551D-01  0.17830665D-01 -0.11317394D-01
 -0.43850482D-02 -0.23204465D-02  0.58159023D-02  0.15877772D-02 -0.23538875D-03
  0.38518532D-05 -0.00000000D+00 -0.00000000D+00  0.10616323D-02  0.00000000D+00
 -0.00000000D+00  0.33781808D-04 -0.00000000D+00  0.00000000D+00 -0.15569113D-03
  0.00000000D+00 -0.00000000D+00 -0.72593758D-07 -0.75075584D-07 -0.75075584D-07
 -0.00000000D+00 -0.00000000D+00 -0.00000000D+00  0.27133625D-05 -0.16652634D-05
 -0.16652634D-05  0.00000000D+00 -0.00000000D+00  0.00000000D+00  0.21479127D-02
 -0.19220541D-02 -0.16138551D-01  0.17830665D-01 -0.11317394D-01 -0.43850482D-02
 -0.23204465D-02  0.58159023D-02  0.15877772D-02 -0.23538875D-03 -0.38518532D-05
  0.00000000D+00  0.00000000D+00 -0.10616323D-02 -0.00000000D+00  0.00000000D+00
 -0.33781808D-04  0.00000000D+00 -0.00000000D+00  0.15569113D-03 -0.00000000D+00
  0.00000000D+00 -0.72593758D-07 -0.75075584D-07 -0.75075584D-07 -0.00000000D+00
 -0.00000000D+00  0.00000000D+00  0.27133625D-05 -0.16652634D-05 -0.16652634D-05
  0.00000000D+00 -0.00000000D+00 -0.00000000D+00
MO   20     MO 0.0        OCC NO =    0.0000000  ORB. ENERGY =    0.035743
 -0.11505554D-03 -0.25234085D-03 -0.74572946D-01  0.31446047D-01 -0.39037876D-02
  0.11939227D-01 -0.16880839D-02 -0.33066214D-02 -0.28836902D-02  0.76187788D-03
  0.30032529D-04 -0.00000000D+00  0.00000000D+00  0.32519119D-04 -0.00000000D+00
  0.00000000D+00 -0.14977500D-02  0.00000000D+00 -0.00000000D+00  0.19594627D-02
 -0.00000000D+00  0.00000000D+00  0.11211626D-05  0.11550038D-05  0.11550038D-05
 -0.00000000D+00  0.00000000D+00  0.00000000D+00  0.10120569D-04  0.97910782D-05
  0.97910782D-05 -0.00000000D+00  0.00000000D+00 -0.00000000D+00  0.11505554D-03
  0.25234085D-03  0.74572946D-01 -0.31446047D-01  0.39037876D-02 -0.11939227D-01
  0.16880839D-02  0.33066214D-02  0.28836902D-02 -0.76187788D-03  0.30032529D-04
  0.00000000D+00 -0.00000000D+00  0.32519119D-04  0.00000000D+00 -0.00000000D+00
 -0.14977500D-02 -0.00000000D+00  0.00000000D+00  0.19594627D-02  0.00000000D+00
 -0.00000000D+00 -0.11211626D-05 -0.11550038D-05 -0.11550038D-05 -0.00000000D+00
  0.00000000D+00 -0.00000000D+00 -0.10120569D-04 -0.97910782D-05 -0.97910782D-05
 -0.00000000D+00  0.00000000D+00  0.00000000D+00
MO   21     MO 0.0        OCC NO =    0.0000000  ORB. ENERGY =    0.037385
 -0.00000000D+00 -0.00000000D+00  0.00000000D+00 -0.00000000D+00  0.00000000D+00
 -0.00000000D+00  0.00000000D+00  0.00000000D+00  0.00000000D+00 -0.00000000D+00
 -0.00000000D+00  0.00000000D+00  0.00000000D+00  0.00000000D+00  0.00000000D+00
  0.00000000D+00  0.00000000D+00 -0.00000000D+00 -0.00000000D+00 -0.00000000D+00
  0.00000000D+00  0.00000000D+00 -0.00000000D+00 -0.21917216D-07  0.21917216D-07
  0.00000000D+00  0.00000000D+00 -0.76173279D-07  0.00000000D+00  0.30467483D-06
 -0.30467483D-06  0.00000000D+00  0.00000000D+00  0.10588973D-05 -0.00000000D+00
 -0.00000000D+00 -0.00000000D+00  0.00000000D+00 -0.00000000D+00  0.00000000D+00
  0.00000000D+00 -0.00000000D+00  0.00000000D+00 -0.00000000D+00  0.00000000D+00
 -0.00000000D+00 -0.00000000D+00 -0.00000000D+00 -0.00000000D+00 -0.00000000D+00
  0.00000000D+00  0.00000000D+00  0.00000000D+00 -0.00000000D+00 -0.00000000D+00
 -0.00000000D+00  0.00000000D+00 -0.21917216D-07  0.21917216D-07  0.00000000D+00
  0.00000000D+00 -0.76173279D-07  0.00000000D+00  0.30467483D-06 -0.30467483D-06
  0.00000000D+00  0.00000000D+00  0.10588973D-05
MO   22     MO 0.0        OCC NO =    0.0000000  ORB. ENERGY =    0.037385
 -0.00000000D+00 -0.00000000D+00 -0.00000000D+00  0.00000000D+00 -0.00000000D+00
  0.00000000D+00 -0.00000000D+00 -0.00000000D+00 -0.00000000D+00  0.00000000D+00
  0.00000000D+00  0.00000000D+00  0.00000000D+00  0.00000000D+00  0.00000000D+00
  0.00000000D+00 -0.00000000D+00 -0.00000000D+00 -0.00000000D+00  0.00000000D+00
  0.00000000D+00  0.00000000D+00  0.00000000D+00  0.38086640D-07 -0.38086640D-07
  0.00000000D+00  0.00000000D+00 -0.43834434D-07  0.00000000D+00 -0.52944866D-06
  0.52944866D-06  0.00000000D+00  0.00000000D+00  0.60934967D-06 -0.00000000D+00
 -0.00000000D+00  0.00000000D+00 -0.00000000D+00  0.00000000D+00 -0.00000000D+00
 -0.00000000D+00  0.00000000D+00  0.00000000D+00 -0.00000000D+00  0.00000000D+00
 -0.00000000D+00 -0.00000000D+00 -0.00000000D+00 -0.00000000D+00 -0.00000000D+00
 -0.00000000D+00  0.00000000D+00  0.00000000D+00  0.00000000D+00 -0.00000000D+00
 -0.00000000D+00 -0.00000000D+00  0.38086640D-07 -0.38086640D-07  0.00000000D+00
  0.00000000D+00 -0.43834434D-07 -0.00000000D+00 -0.52944866D-06  0.52944866D-06
  0.00000000D+00  0.00000000D+00  0.60934967D-06
MO   23     MO 0.0        OCC NO =    0.0000000  ORB. ENERGY =    0.041648
  0.00000000D+00  0.00000000D+00  0.00000000D+00 -0.00000000D+00  0.00000000D+00
 -0.00000000D+00  0.00000000D+00 -0.00000000D+00 -0.00000000D+00 -0.00000000D+00
  0.00000000D+00 -0.16543319D-08  0.17989440D-05 -0.00000000D+00  0.46523093D-07
 -0.50588710D-04  0.00000000D+00 -0.18344130D-06  0.19947301D-03 -0.00000000D+00
  0.26339853D-06 -0.28641393D-03 -0.00000000D+00 -0.00000000D+00 -0.00000000D+00
 -0.66342901D-09  0.72140451D-06 -0.00000000D+00 -0.00000000D+00 -0.00000000D+00
 -0.00000000D+00  0.31916709D-08 -0.34705915D-05  0.00000000D+00  0.00000000D+00
  0.00000000D+00 -0.00000000D+00  0.00000000D+00 -0.00000000D+00  0.00000000D+00
 -0.00000000D+00 -0.00000000D+00 -0.00000000D+00  0.00000000D+00 -0.00000000D+00
 -0.16543319D-08  0.17989440D-05  0.00000000D+00  0.46523093D-07 -0.50588710D-04
  0.00000000D+00 -0.18344130D-06  0.19947301D-03 -0.00000000D+00  0.26339853D-06
 -0.28641393D-03  0.00000000D+00  0.00000000D+00  0.00000000D+00  0.66342901D-09
 -0.72140451D-06  0.00000000D+00 -0.00000000D+00  0.00000000D+00  0.00000000D+00
 -0.31916709D-08  0.34705915D-05 -0.00000000D+00
MO   24     MO 0.0        OCC NO =    0.0000000  ORB. ENERGY =    0.041648
 -0.00000000D+00 -0.00000000D+00  0.00000000D+00 -0.00000000D+00  0.00000000D+00
 -0.00000000D+00  0.00000000D+00  0.00000000D+00  0.00000000D+00 -0.00000000D+00
 -0.00000000D+00  0.17989440D-05  0.16543319D-08  0.00000000D+00 -0.50588710D-04
 -0.46523093D-07 -0.00000000D+00  0.19947301D-03  0.18344130D-06 -0.00000000D+00
 -0.28641393D-03 -0.26339853D-06  0.00000000D+00  0.00000000D+00  0.00000000D+00
  0.72140451D-06  0.66342901D-09  0.00000000D+00  0.00000000D+00  0.00000000D+00
  0.00000000D+00 -0.34705915D-05 -0.31916709D-08 -0.00000000D+00 -0.00000000D+00
 -0.00000000D+00 -0.00000000D+00  0.00000000D+00 -0.00000000D+00 -0.00000000D+00
  0.00000000D+00 -0.00000000D+00  0.00000000D+00 -0.00000000D+00  0.00000000D+00
  0.17989440D-05  0.16543319D-08 -0.00000000D+00 -0.50588710D-04 -0.46523093D-07