[Molden Format]
[Title]
 Molden2AIM, Version 3.1.0 (02/25/2015)           Time: Thu Oct 17 19:56:18 2024

[Atoms] AU
E+       1       4     0.00000000     0.00000000     0.00000000
E+       2       4    57.40000000     0.00000000     0.00000000
[GTO]
    1 0
 S   1 1.0
    0.1000000000D-03      0.1000000000D+01
 S   1 1.0
    0.3000000000D-03      0.1000000000D+01
 S   1 1.0
    0.9000000000D-03      0.1000000000D+01
 S   1 1.0
    0.2700000000D-02      0.1000000000D+01
 S   1 1.0
    0.8100000000D-02      0.1000000000D+01
 S   1 1.0
    0.2430000000D-01      0.1000000000D+01
 S   1 1.0
    0.7290000000D-01      0.1000000000D+01
 S   1 1.0
    0.2187000000D+00      0.1000000000D+01
 S   1 1.0
    0.6561000000D+00      0.1000000000D+01
 S   1 1.0
    0.1968300000D+01      0.1000000000D+01
 P   1 1.0
    0.1000000000D-03      0.1000000000D+01
 P   1 1.0
    0.3000000000D-03      0.1000000000D+01
 P   1 1.0
    0.9000000000D-03      0.1000000000D+01
 P   1 1.0
    0.2700000000D-02      0.1000000000D+01
 D   1 1.0
    0.1000000000D-03      0.1000000000D+01
 D   1 1.0
    0.3000000000D-03      0.1000000000D+01

    2 0
 S   1 1.0
    0.1000000000D-03      0.1000000000D+01
 S   1 1.0
    0.3000000000D-03      0.1000000000D+01
 S   1 1.0
    0.9000000000D-03      0.1000000000D+01
 S   1 1.0
    0.2700000000D-02      0.1000000000D+01
 S   1 1.0
    0.8100000000D-02      0.1000000000D+01
 S   1 1.0
    0.2430000000D-01      0.1000000000D+01
 S   1 1.0
    0.7290000000D-01      0.1000000000D+01
 S   1 1.0
    0.2187000000D+00      0.1000000000D+01
 S   1 1.0
    0.6561000000D+00      0.1000000000D+01
 S   1 1.0
    0.1968300000D+01      0.1000000000D+01
 P   1 1.0
    0.1000000000D-03      0.1000000000D+01
 P   1 1.0
    0.3000000000D-03      0.1000000000D+01
 P   1 1.0
    0.9000000000D-03      0.1000000000D+01
 P   1 1.0
    0.2700000000D-02      0.1000000000D+01
 D   1 1.0
    0.1000000000D-03      0.1000000000D+01
 D   1 1.0
    0.3000000000D-03      0.1000000000D+01


[MO]
 Ene=          0.00422027
 Spin= Alpha
 Occup=        1.00000000
    1        0.4265294100
    2        0.2091902400
    3       -0.6702387100
    4        0.1062276800
    5       -0.1379350800
    6       -0.0750444700
    7       -0.0593283300
    8        0.0458837800
    9        0.0027349900
   10        0.0000116900
   11       -0.4377020800
   12       -0.0000000000
   13        0.0000000000
   14        0.1663184300
   15        0.0000000000
   16        0.0000000000
   17       -0.3043811000
   18       -0.0000000000
   19       -0.0000000000
   20       -0.1251927000
   21        0.0000000000
   22        0.0000000000
   23       -0.2389612700
   24       -0.0262885600
   25       -0.0262885600
   26       -0.0000000000
   27        0.0000000000
   28       -0.0000000000
   29       -0.0716096600
   30       -0.0893170500
   31       -0.0893170500
   32        0.0000000000
   33        0.0000000000
   34        0.0000000000
   35        0.4265294100
   36        0.2091902400
   37       -0.6702387100
   38        0.1062276800
   39       -0.1379350800
   40       -0.0750444700
   41       -0.0593283300
   42        0.0458837800
   43        0.0027349900
   44        0.0000116900
   45        0.4377020800
   46        0.0000000000
   47       -0.0000000000
   48       -0.1663184300
   49       -0.0000000000
   50       -0.0000000000
   51        0.3043811000
   52        0.0000000000
   53        0.0000000000
   54        0.1251927000
   55       -0.0000000000
   56       -0.0000000000
   57       -0.2389612700
   58       -0.0262885600
   59       -0.0262885600
   60        0.0000000000
   61        0.0000000000
   62        0.0000000000
   63       -0.0716096600
   64       -0.0893170500
   65       -0.0893170500
   66        0.0000000000
   67        0.0000000000
   68       -0.0000000000
 Ene=          0.00591545
 Spin= Alpha
 Occup=        0.00000000
    1        0.0198512500
    2       -0.8121878600
    3       -0.0473907800
    4       -0.4241690900
    5       -0.0966220600
    6       -0.1910231500
    7       -0.0905684300
    8        0.0781504400
    9        0.0061970200
   10       -0.0001995800
   11       -0.0378203100
   12       -0.0000000000
   13        0.0000000000
   14       -0.5570709300
   15       -0.0000000000
   16        0.0000000000
   17        0.1288460400
   18        0.0000000000
   19       -0.0000000000
   20       -0.3161505200
   21       -0.0000000000
   22        0.0000000000
   23       -0.0298121400
   24       -0.0237271200
   25       -0.0237271200
   26       -0.0000000000
   27        0.0000000000
   28        0.0000000000
   29       -0.2262872800
   30       -0.0642317400
   31       -0.0642317400
   32       -0.0000000000
   33       -0.0000000000
   34       -0.0000000000
   35       -0.0198512500
   36        0.8121878600
   37        0.0473907800
   38        0.4241690900
   39        0.0966220600
   40        0.1910231500
   41        0.0905684300
   42       -0.0781504400
   43       -0.0061970200
   44        0.0001995800
   45       -0.0378203100
   46        0.0000000000
   47       -0.0000000000
   48       -0.5570709300
   49       -0.0000000000
   50        0.0000000000
   51        0.1288460400
   52        0.0000000000
   53       -0.0000000000
   54       -0.3161505200
   55       -0.0000000000
   56        0.0000000000
   57        0.0298121400
   58        0.0237271200
   59        0.0237271200
   60        0.0000000000
   61        0.0000000000
   62       -0.0000000000
   63        0.2262872800
   64        0.0642317400
   65        0.0642317400
   66       -0.0000000000
   67       -0.0000000000
   68        0.0000000000
 Ene=          0.00801199
 Spin= Alpha
 Occup=        0.00000000
    1        0.4336165700
    2        0.0916001600
    3       -0.7308707700
    4        0.7624166800
    5        0.0600089700
    6        0.2148942100
    7        0.0847308200
    8       -0.0768459200
    9       -0.0067419900
   10        0.0002869300
   11       -0.6372759600
   12        0.0000000000
   13       -0.0000000000
   14        0.2506250800
   15       -0.0000000000
   16        0.0000000000
   17       -0.5189509800
   18        0.0000000000
   19       -0.0000000000
   20        0.3023502800
   21       -0.0000000000
   22        0.0000000000
   23       -0.3244968800
   24       -0.0107542300
   25       -0.0107542300
   26        0.0000000000
   27        0.0000000000
   28       -0.0000000000
   29        0.0031127200
   30       -0.0354095800
   31       -0.0354095800
   32        0.0000000000
   33       -0.0000000000
   34       -0.0000000000
   35        0.4336165700
   36        0.0916001600
   37       -0.7308707700
   38        0.7624166800
   39        0.0600089700
   40        0.2148942100
   41        0.0847308200
   42       -0.0768459200
   43       -0.0067419900
   44        0.0002869300
   45        0.6372759600
   46       -0.0000000000
   47        0.0000000000
   48       -0.2506250800
   49       -0.0000000000
   50        0.0000000000
   51        0.5189509800
   52        0.0000000000
   53       -0.0000000000
   54       -0.3023502800
   55       -0.0000000000
   56        0.0000000000
   57       -0.3244968800
   58       -0.0107542300
   59       -0.0107542300
   60        0.0000000000
   61       -0.0000000000
   62        0.0000000000
   63        0.0031127200
   64       -0.0354095800
   65       -0.0354095800
   66        0.0000000000
   67        0.0000000000
   68       -0.0000000000
 Ene=          0.01438510
 Spin= Alpha
 Occup=        0.00000000
    1       -0.0174978100
    2       -2.5936524700
    3        0.9017802600
    4        0.1332922700
    5       -0.5645667500
    6       -0.0946383600
    7       -0.1118652200
    8        0.0811454000
    9        0.0040267200
   10        0.0001474800
   11        0.1169089100
   12        0.0000000000
   13        0.0000000000
   14       -1.4540163200
   15        0.0000000000
   16       -0.0000000000
   17        0.2961413700
   18       -0.0000000000
   19        0.0000000000
   20        0.3629902000
   21        0.0000000000
   22       -0.0000000000
   23        0.0982238600
   24        0.0766390300
   25        0.0766390300
   26        0.0000000000
   27        0.0000000000
   28       -0.0000000000
   29       -0.2884804000
   30        0.1357842700
   31        0.1357842700
   32       -0.0000000000
   33       -0.0000000000
   34       -0.0000000000
   35        0.0174978100
   36        2.5936524700
   37       -0.9017802600
   38       -0.1332922700
   39        0.5645667500
   40        0.0946383600
   41        0.1118652200
   42       -0.0811454000
   43       -0.0040267200
   44       -0.0001474800
   45        0.1169089100
   46       -0.0000000000
   47       -0.0000000000
   48       -1.4540163200
   49       -0.0000000000
   50        0.0000000000
   51        0.2961413700
   52        0.0000000000
   53       -0.0000000000
   54        0.3629902000
   55       -0.0000000000
   56        0.0000000000
   57       -0.0982238600
   58       -0.0766390300
   59       -0.0766390300
   60        0.0000000000
   61        0.0000000000
   62        0.0000000000
   63        0.2884804000
   64       -0.1357842700
   65       -0.1357842700
   66       -0.0000000000
   67       -0.0000000000
   68       -0.0000000000
 Ene=          0.01662430
 Spin= Alpha
 Occup=        0.00000000
    1        0.0000000000
    2       -0.0000000000
    3       -0.0000000000
    4       -0.0000000000
    5        0.0000000000
    6       -0.0000000000
    7        0.0000000000
    8       -0.0000000000
    9       -0.0000000000
   10        0.0000000000
   11        0.0000000000
   12       -0.0429161300
   13       -0.0507289200
   14       -0.0000000000
   15        0.1075590300
   16        0.1271399100
   17        0.0000000000
   18       -0.3945017700
   19       -0.4663199500
   20       -0.0000000000
   21       -0.0843313700
   22       -0.0996837100
   23        0.0000000000
   24       -0.0000000000
   25       -0.0000000000
   26        0.0536265200
   27        0.0633891100
   28       -0.0000000000
   29       -0.0000000000
   30       -0.0000000000
   31       -0.0000000000
   32       -0.0845677600
   33       -0.0999631400
   34        0.0000000000
   35       -0.0000000000
   36        0.0000000000
   37       -0.0000000000
   38       -0.0000000000
   39        0.0000000000
   40       -0.0000000000
   41        0.0000000000
   42       -0.0000000000
   43        0.0000000000
   44       -0.0000000000
   45       -0.0000000000
   46       -0.0429161300
   47       -0.0507289200
   48       -0.0000000000
   49        0.1075590300
   50        0.1271399100
   51       -0.0000000000
   52       -0.3945017700
   53       -0.4663199500
   54        0.0000000000
   55       -0.0843313700
   56       -0.0996837100
   57        0.0000000000
   58       -0.0000000000
   59       -0.0000000000
   60       -0.0536265200
   61       -0.0633891100
   62        0.0000000000
   63        0.0000000000
   64       -0.0000000000
   65       -0.0000000000
   66        0.0845677600
   67        0.0999631400
   68       -0.0000000000
 Ene=          0.01662430
 Spin= Alpha
 Occup=        0.00000000
    1       -0.0000000000
    2       -0.0000000000
    3       -0.0000000000
    4        0.0000000000
    5       -0.0000000000
    6        0.0000000000
    7       -0.0000000000
    8        0.0000000000
    9        0.0000000000
   10       -0.0000000000
   11        0.0000000000
   12        0.0507289200
   13       -0.0429161300
   14       -0.0000000000
   15       -0.1271399100
   16        0.1075590300
   17       -0.0000000000
   18        0.4663199500
   19       -0.3945017700
   20        0.0000000000
   21        0.0996837100
   22       -0.0843313700
   23        0.0000000000
   24       -0.0000000000
   25        0.0000000000
   26       -0.0633891100
   27        0.0536265200
   28       -0.0000000000
   29       -0.0000000000
   30        0.0000000000
   31       -0.0000000000
   32        0.0999631400
   33       -0.0845677600
   34        0.0000000000
   35       -0.0000000000
   36        0.0000000000
   37       -0.0000000000
   38        0.0000000000
   39       -0.0000000000
   40        0.0000000000
   41       -0.0000000000
   42        0.0000000000
   43        0.0000000000
   44       -0.0000000000
   45       -0.0000000000
   46        0.0507289200
   47       -0.0429161300
   48       -0.0000000000
   49       -0.1271399100
   50        0.1075590300
   51        0.0000000000
   52        0.4663199500
   53       -0.3945017700
   54       -0.0000000000
   55        0.0996837100
   56       -0.0843313700
   57        0.0000000000
   58        0.0000000000
   59       -0.0000000000
   60        0.0633891100
   61       -0.0536265200
   62        0.0000000000
   63        0.0000000000
   64        0.0000000000
   65        0.0000000000
   66       -0.0999631400
   67        0.0845677600
   68       -0.0000000000
 Ene=          0.01693620
 Spin= Alpha
 Occup=        0.00000000
    1       -0.6260133600
    2       -0.4548721700
    3        0.1196855600
    4        1.0775222200
    5       -0.8323254400
    6       -0.0024794800
    7       -0.1178093000
    8        0.0753102600
    9        0.0018159200
   10        0.0004135400
   11       -0.1939227300
   12        0.0000000000
   13       -0.0000000000
   14        0.0024351600
   15       -0.0000000000
   16       -0.0000000000
   17       -0.4815696200
   18       -0.0000000000
   19       -0.0000000000
   20        0.7698053500
   21       -0.0000000000
   22       -0.0000000000
   23        0.0206258800
   24        0.1056940400
   25        0.1056940400
   26        0.0000000000
   27        0.0000000000
   28        0.0000000000
   29        0.2397187700
   30        0.3367537800
   31        0.3367537800
   32       -0.0000000000
   33       -0.0000000000
   34       -0.0000000000
   35       -0.6260133600
   36       -0.4548721700
   37        0.1196855600
   38        1.0775222200
   39       -0.8323254400
   40       -0.0024794800
   41       -0.1178093000
   42        0.0753102600
   43        0.0018159200
   44        0.0004135400
   45        0.1939227300
   46       -0.0000000000
   47        0.0000000000
   48       -0.0024351600
   49        0.0000000000
   50        0.0000000000
   51        0.4815696200
   52       -0.0000000000
   53       -0.0000000000
   54       -0.7698053500
   55       -0.0000000000
   56       -0.0000000000
   57        0.0206258800
   58        0.1056940400
   59        0.1056940400
   60        0.0000000000
   61       -0.0000000000
   62       -0.0000000000
   63        0.2397187700
   64        0.3367537800
   65        0.3367537800
   66       -0.0000000000
   67       -0.0000000000
   68        0.0000000000
 Ene=          0.01930830
 Spin= Alpha
 Occup=        0.00000000
    1       -0.0000000000
    2        0.0000000000
    3       -0.0000000000
    4        0.0000000000
    5       -0.0000000000
    6        0.0000000000
    7       -0.0000000000
    8        0.0000000000
    9        0.0000000000
   10       -0.0000000000
   11       -0.0000000000
   12        0.1523614500
   13        0.0097962200
   14        0.0000000000
   15       -0.0058712700
   16       -0.0003775000
   17       -0.0000000000
   18        0.1278052600
   19        0.0082173500
   20        0.0000000000
   21        0.6343964900
   22        0.0407890900
   23       -0.0000000000
   24        0.0000000000
   25        0.0000000000
   26        0.0320956700
   27        0.0020636200
   28       -0.0000000000
   29        0.0000000000
   30        0.0000000000
   31        0.0000000000
   32        0.0395989900
   33        0.0025460500
   34        0.0000000000
   35        0.0000000000
   36       -0.0000000000
   37        0.0000000000
   38       -0.0000000000
   39        0.0000000000
   40       -0.0000000000
   41        0.0000000000
   42       -0.0000000000
   43        0.0000000000
   44       -0.0000000000
   45        0.0000000000
   46       -0.1523614500
   47       -0.0097962200
   48        0.0000000000
   49        0.0058712700
   50        0.0003775000
   51       -0.0000000000
   52       -0.1278052600
   53       -0.0082173500
   54        0.0000000000
   55       -0.6343964900
   56       -0.0407890900
   57       -0.0000000000
   58       -0.0000000000
   59       -0.0000000000
   60        0.0320956700
   61        0.0020636200
   62        0.0000000000
   63       -0.0000000000
   64       -0.0000000000
   65       -0.0000000000
   66        0.0395989900
   67        0.0025460500
   68       -0.0000000000
 Ene=          0.01930830
 Spin= Alpha
 Occup=        0.00000000
    1       -0.0000000000
    2        0.0000000000
    3       -0.0000000000
    4        0.0000000000
    5       -0.0000000000
    6        0.0000000000
    7       -0.0000000000
    8        0.0000000000
    9       -0.0000000000
   10        0.0000000000
   11        0.0000000000
   12       -0.0097962200
   13        0.1523614500
   14        0.0000000000
   15        0.0003775000
   16       -0.0058712700
   17       -0.0000000000
   18       -0.0082173500
   19        0.1278052600
   20        0.0000000000
   21       -0.0407890900
   22        0.6343964900
   23        0.0000000000
   24        0.0000000000
   25        0.0000000000
   26       -0.0020636200
   27        0.0320956700
   28       -0.0000000000
   29        0.0000000000
   30        0.0000000000
   31        0.0000000000
   32       -0.0025460500
   33        0.0395989900
   34        0.0000000000
   35        0.0000000000
   36       -0.0000000000
   37        0.0000000000
   38       -0.0000000000
   39        0.0000000000
   40       -0.0000000000
   41        0.0000000000
   42       -0.0000000000
   43       -0.0000000000
   44        0.0000000000
   45        0.0000000000
   46        0.0097962200
   47       -0.1523614500
   48        0.0000000000
   49       -0.0003775000
   50        0.0058712700
   51       -0.0000000000
   52        0.0082173500
   53       -0.1278052600
   54        0.0000000000
   55        0.0407890900
   56       -0.6343964900
   57       -0.0000000000
   58       -0.0000000000
   59       -0.0000000000
   60       -0.0020636200
   61        0.0320956700
   62       -0.0000000000
   63       -0.0000000000
   64       -0.0000000000
   65       -0.0000000000
   66       -0.0025460500
   67        0.0395989900
   68        0.0000000000
 Ene=          0.02079380
 Spin= Alpha
 Occup=        0.00000000
    1        0.0537187700
    2       -8.0532150100
    3        2.3711118900
    4       -1.7712069700
    5        0.6906618000
    6       -0.0717163000
    7        0.0685986300
    8       -0.0364777500
    9        0.0006663400
   10       -0.0004216600
   11        0.0519847700
   12        0.0000000000
   13        0.0000000000
   14       -4.9532642700
   15       -0.0000000000
   16       -0.0000000000
   17        1.5317031400
   18       -0.0000000000
   19        0.0000000000
   20       -0.7145614900
   21        0.0000000000
   22        0.0000000000
   23        0.0328405000
   24        0.0463353200
   25        0.0463353200
   26        0.0000000000
   27        0.0000000000
   28       -0.0000000000
   29       -1.4442789500
   30       -0.0497060400
   31       -0.0497060400
   32       -0.0000000000
   33       -0.0000000000
   34       -0.0000000000
   35       -0.0537187700
   36        8.0532150100
   37       -2.3711118900
   38        1.7712069700
   39       -0.6906618000
   40        0.0717163000
   41       -0.0685986300
   42        0.0364777500
   43       -0.0006663400
   44        0.0004216600
   45        0.0519847700
   46       -0.0000000000
   47       -0.0000000000
   48       -4.9532642700
   49        0.0000000000
   50        0.0000000000
   51        1.5317031400
   52        0.0000000000
   53       -0.0000000000
   54       -0.7145614900
   55       -0.0000000000
   56       -0.0000000000
   57       -0.0328405000
   58       -0.0463353200
   59       -0.0463353200
   60        0.0000000000
   61        0.0000000000
   62        0.0000000000
   63        1.4442789500
   64        0.0497060400
   65        0.0497060400
   66       -0.0000000000
   67       -0.0000000000
   68        0.0000000000
 Ene=          0.02265390
 Spin= Alpha
 Occup=        0.00000000
    1       -0.0000000000
    2       -0.0000000000
    3       -0.0000000000
    4        0.0000000000
    5       -0.0000000000
    6       -0.0000000000
    7        0.0000000000
    8       -0.0000000000
    9        0.0000000000
   10       -0.0000000000
   11        0.0000000000
   12       -0.0175255700
   13       -0.0642760400
   14       -0.0000000000
   15        0.0458224900
   16        0.1680566000
   17        0.0000000000
   18       -0.2121931500
   19       -0.7782304300
   20       -0.0000000000
   21        0.2627746700
   22        0.9637410400
   23        0.0000000000
   24       -0.0000000000
   25       -0.0000000000
   26        0.0212477900
   27        0.0779274800
   28        0.0000000000
   29       -0.0000000000
   30       -0.0000000000
   31       -0.0000000000
   32       -0.0336815500
   33       -0.1235290100
   34       -0.0000000000
   35       -0.0000000000
   36        0.0000000000
   37        0.0000000000
   38       -0.0000000000
   39        0.0000000000
   40       -0.0000000000
   41        0.0000000000
   42       -0.0000000000
   43        0.0000000000
   44       -0.0000000000
   45       -0.0000000000
   46       -0.0175255700
   47       -0.0642760400
   48       -0.0000000000
   49        0.0458224900
   50        0.1680566000
   51       -0.0000000000
   52       -0.2121931500
   53       -0.7782304300
   54       -0.0000000000
   55        0.2627746700
   56        0.9637410400
   57        0.0000000000
   58        0.0000000000
   59        0.0000000000
   60       -0.0212477900
   61       -0.0779274800
   62        0.0000000000
   63        0.0000000000
   64        0.0000000000
   65        0.0000000000
   66        0.0336815500
   67        0.1235290100
   68       -0.0000000000
 Ene=          0.02265390
 Spin= Alpha
 Occup=        0.00000000
    1        0.0000000000
    2        0.0000000000
    3       -0.0000000000
    4        0.0000000000
    5       -0.0000000000
    6        0.0000000000
    7       -0.0000000000
    8        0.0000000000
    9       -0.0000000000
   10        0.0000000000
   11       -0.0000000000
   12        0.0642760400
   13       -0.0175255700
   14        0.0000000000
   15       -0.1680566000
   16        0.0458224900
   17       -0.0000000000
   18        0.7782304300
   19       -0.2121931500
   20       -0.0000000000
   21       -0.9637410400
   22        0.2627746700
   23       -0.0000000000
   24       -0.0000000000
   25       -0.0000000000
   26       -0.0779274800
   27        0.0212477900
   28       -0.0000000000
   29        0.0000000000
   30       -0.0000000000
   31       -0.0000000000
   32        0.1235290100
   33       -0.0336815500
   34        0.0000000000
   35        0.0000000000
   36       -0.0000000000
   37       -0.0000000000
   38        0.0000000000
   39       -0.0000000000
   40        0.0000000000
   41       -0.0000000000
   42        0.0000000000
   43        0.0000000000
   44       -0.0000000000
   45        0.0000000000
   46        0.0642760400
   47       -0.0175255700
   48        0.0000000000
   49       -0.1680566000
   50        0.0458224900
   51       -0.0000000000
   52        0.7782304300
   53       -0.2121931500
   54        0.0000000000
   55       -0.9637410400
   56        0.2627746700
   57       -0.0000000000
   58        0.0000000000
   59       -0.0000000000
   60        0.0779274800
   61       -0.0212477900
   62        0.0000000000
   63       -0.0000000000
   64       -0.0000000000
   65       -0.0000000000
   66       -0.1235290100
   67        0.0336815500
   68       -0.0000000000
 Ene=          0.02708230
 Spin= Alpha
 Occup=        0.00000000
    1        0.7433443000
    2        0.1049334200
    3       -0.1210681000
    4        0.7724395000
    5       -0.5688760000
    6       -0.0193209200
    7       -0.0626437900
    8        0.0417169100
    9        0.0014654100
   10        0.0001683100
   11       -0.7358929400
   12        0.0000000000
   13        0.0000000000
   14        0.2846203400
   15        0.0000000000
   16       -0.0000000000
   17       -0.3335749500
   18       -0.0000000000
   19        0.0000000000
   20       -0.2240884900
   21        0.0000000000
   22       -0.0000000000
   23       -0.4203280400
   24       -0.0479664900
   25       -0.0479664900
   26        0.0000000000
   27        0.0000000000
   28       -0.0000000000
   29       -0.0453997100
   30       -0.1275266100
   31       -0.1275266100
   32       -0.0000000000
   33       -0.0000000000
   34        0.0000000000
   35        0.7433443000
   36        0.1049334200
   37       -0.1210681000
   38        0.7724395000
   39       -0.5688760000
   40       -0.0193209200
   41       -0.0626437900
   42        0.0417169100
   43        0.0014654100
   44        0.0001683100
   45        0.7358929400
   46       -0.0000000000
   47       -0.0000000000
   48       -0.2846203400
   49       -0.0000000000
   50        0.0000000000
   51        0.3335749500
   52        0.0000000000
   53       -0.0000000000
   54        0.2240884900
   55        0.0000000000
   56        0.0000000000
   57       -0.4203280400
   58       -0.0479664900
   59       -0.0479664900
   60        0.0000000000
   61        0.0000000000
   62        0.0000000000
   63       -0.0453997100
   64       -0.1275266100
   65       -0.1275266100
   66       -0.0000000000
   67       -0.0000000000
   68       -0.0000000000
 Ene=          0.02771870
 Spin= Alpha
 Occup=        0.00000000
    1        0.0000000000
    2       -0.0000000000
    3       -0.0000000000
    4        0.0000000000
    5       -0.0000000000
    6        0.0000000000
    7       -0.0000000000
    8        0.0000000000
    9       -0.0000000000
   10        0.0000000000
   11       -0.0000000000
   12       -1.4095684600
   13        0.8850765200
   14       -0.0000000000
   15        0.4294696800
   16       -0.2696666000
   17        0.0000000000
   18       -1.1915780900
   19        0.7481990600
   20        0.0000000000
   21        0.7393030100
   22       -0.4642128100
   23       -0.0000000000
   24       -0.0000000000
   25       -0.0000000000
   26       -0.3676262600
   27        0.2308347400
   28       -0.0000000000
   29       -0.0000000000
   30       -0.0000000000
   31       -0.0000000000
   32        0.0020318400
   33       -0.0012758000
   34       -0.0000000000
   35        0.0000000000
   36        0.0000000000
   37       -0.0000000000
   38        0.0000000000
   39       -0.0000000000
   40       -0.0000000000
   41       -0.0000000000
   42        0.0000000000
   43        0.0000000000
   44       -0.0000000000
   45       -0.0000000000
   46        1.4095684600
   47       -0.8850765200
   48       -0.0000000000
   49       -0.4294696800
   50        0.2696666000
   51        0.0000000000
   52        1.1915780900
   53       -0.7481990600
   54       -0.0000000000
   55       -0.7393030100
   56        0.4642128100
   57        0.0000000000
   58        0.0000000000
   59        0.0000000000
   60       -0.3676262600
   61        0.2308347400
   62       -0.0000000000
   63        0.0000000000
   64       -0.0000000000
   65       -0.0000000000
   66        0.0020318400
   67       -0.0012758000
   68        0.0000000000
 Ene=          0.02771870
 Spin= Alpha
 Occup=        0.00000000
    1       -0.0000000000
    2        0.0000000000
    3       -0.0000000000
    4       -0.0000000000
    5        0.0000000000
    6       -0.0000000000
    7        0.0000000000
    8       -0.0000000000
    9        0.0000000000
   10       -0.0000000000
   11       -0.0000000000
   12        0.8850765200
   13        1.4095684600
   14        0.0000000000
   15       -0.2696666000
   16       -0.4294696800
   17       -0.0000000000
   18        0.7481990600
   19        1.1915780900
   20        0.0000000000
   21       -0.4642128100
   22       -0.7393030100
   23       -0.0000000000
   24       -0.0000000000
   25       -0.0000000000
   26        0.2308347400
   27        0.3676262600
   28       -0.0000000000
   29        0.0000000000
   30       -0.0000000000
   31       -0.0000000000
   32       -0.0012758000
   33       -0.0020318400
   34        0.0000000000
   35        0.0000000000
   36       -0.0000000000
   37       -0.0000000000
   38        0.0000000000
   39       -0.0000000000
   40        0.0000000000
   41        0.0000000000
   42       -0.0000000000
   43       -0.0000000000
   44        0.0000000000
   45        0.0000000000
   46       -0.8850765200
   47       -1.4095684600
   48        0.0000000000
   49        0.2696666000
   50        0.4294696800
   51       -0.0000000000
   52       -0.7481990600
   53       -1.1915780900
   54        0.0000000000
   55        0.4642128100
   56        0.7393030100
   57       -0.0000000000
   58       -0.0000000000
   59       -0.0000000000
   60        0.2308347400
   61        0.3676262600
   62        0.0000000000
   63       -0.0000000000
   64       -0.0000000000
   65       -0.0000000000
   66       -0.0012758000
   67       -0.0020318400
   68        0.0000000000
 Ene=          0.02870350
 Spin= Alpha
 Occup=        0.00000000
    1       -0.0231474800
    2        1.9338801300
    3       -0.6936144100
    4        1.3366876600
    5       -0.7439893600
    6       -0.0028348000
    7       -0.0738648900
    8        0.0471915300
    9        0.0012664300
   10        0.0002466800
   11        0.0136800100
   12       -0.0000000000
   13       -0.0000000000
   14        1.3082087700
   15        0.0000000000
   16        0.0000000000