[Molden Format]
[Title]
 Molden2AIM, Version 3.1.0 (02/25/2015)           Time: Thu Oct 17 19:54:45 2024

[Atoms] AU
E+       1       4     0.00000000     0.00000000     0.00000000
E+       2       4    37.00000000     0.00000000     0.00000000
[GTO]
    1 0
 S   1 1.0
    0.1000000000D-03      0.1000000000D+01
 S   1 1.0
    0.3000000000D-03      0.1000000000D+01
 S   1 1.0
    0.9000000000D-03      0.1000000000D+01
 S   1 1.0
    0.2700000000D-02      0.1000000000D+01
 S   1 1.0
    0.8100000000D-02      0.1000000000D+01
 S   1 1.0
    0.2430000000D-01      0.1000000000D+01
 S   1 1.0
    0.7290000000D-01      0.1000000000D+01
 S   1 1.0
    0.2187000000D+00      0.1000000000D+01
 S   1 1.0
    0.6561000000D+00      0.1000000000D+01
 S   1 1.0
    0.1968300000D+01      0.1000000000D+01
 P   1 1.0
    0.1000000000D-03      0.1000000000D+01
 P   1 1.0
    0.3000000000D-03      0.1000000000D+01
 P   1 1.0
    0.9000000000D-03      0.1000000000D+01
 P   1 1.0
    0.2700000000D-02      0.1000000000D+01
 D   1 1.0
    0.1000000000D-03      0.1000000000D+01
 D   1 1.0
    0.3000000000D-03      0.1000000000D+01

    2 0
 S   1 1.0
    0.1000000000D-03      0.1000000000D+01
 S   1 1.0
    0.3000000000D-03      0.1000000000D+01
 S   1 1.0
    0.9000000000D-03      0.1000000000D+01
 S   1 1.0
    0.2700000000D-02      0.1000000000D+01
 S   1 1.0
    0.8100000000D-02      0.1000000000D+01
 S   1 1.0
    0.2430000000D-01      0.1000000000D+01
 S   1 1.0
    0.7290000000D-01      0.1000000000D+01
 S   1 1.0
    0.2187000000D+00      0.1000000000D+01
 S   1 1.0
    0.6561000000D+00      0.1000000000D+01
 S   1 1.0
    0.1968300000D+01      0.1000000000D+01
 P   1 1.0
    0.1000000000D-03      0.1000000000D+01
 P   1 1.0
    0.3000000000D-03      0.1000000000D+01
 P   1 1.0
    0.9000000000D-03      0.1000000000D+01
 P   1 1.0
    0.2700000000D-02      0.1000000000D+01
 D   1 1.0
    0.1000000000D-03      0.1000000000D+01
 D   1 1.0
    0.3000000000D-03      0.1000000000D+01


[MO]
 Ene=         -0.00389489
 Spin= Alpha
 Occup=        1.00000000
    1        0.0492690900
    2       -0.0389071900
    3       -0.0093462100
    4       -0.2039000700
    5       -0.2952627900
    6       -0.1963784900
    7       -0.1220211600
    8        0.0985600700
    9        0.0067321400
   10       -0.0000932000
   11       -0.1602129300
   12        0.0000000000
   13       -0.0000000000
   14        0.0541955800
   15       -0.0000000000
   16        0.0000000000
   17       -0.0394197200
   18        0.0000000000
   19       -0.0000000000
   20       -0.0128515800
   21       -0.0000000000
   22        0.0000000000
   23       -0.0511136500
   24        0.0015181400
   25        0.0015181400
   26        0.0000000000
   27       -0.0000000000
   28       -0.0000000000
   29        0.0294253100
   30        0.0062011300
   31        0.0062011300
   32        0.0000000000
   33        0.0000000000
   34        0.0000000000
   35        0.0492690900
   36       -0.0389071900
   37       -0.0093462100
   38       -0.2039000700
   39       -0.2952627900
   40       -0.1963784900
   41       -0.1220211600
   42        0.0985600700
   43        0.0067321400
   44       -0.0000932000
   45        0.1602129300
   46       -0.0000000000
   47        0.0000000000
   48       -0.0541955800
   49        0.0000000000
   50       -0.0000000000
   51        0.0394197200
   52       -0.0000000000
   53        0.0000000000
   54        0.0128515800
   55        0.0000000000
   56       -0.0000000000
   57       -0.0511136500
   58        0.0015181400
   59        0.0015181400
   60        0.0000000000
   61       -0.0000000000
   62        0.0000000000
   63        0.0294253100
   64        0.0062011300
   65        0.0062011300
   66        0.0000000000
   67        0.0000000000
   68       -0.0000000000
 Ene=         -0.00354375
 Spin= Alpha
 Occup=        0.00000000
    1        0.0010623100
    2        0.0048638200
    3        0.0163512000
    4        0.2722379100
    5        0.2843171400
    6        0.2147006500
    7        0.1240138000
    8       -0.1017648800
    9       -0.0072449500
   10        0.0001379700
   11       -0.0048808000
   12       -0.0000000000
   13        0.0000000000
   14       -0.0112481900
   15        0.0000000000
   16       -0.0000000000
   17        0.0373790200
   18       -0.0000000000
   19       -0.0000000000
   20        0.0398616100
   21        0.0000000000
   22        0.0000000000
   23       -0.0076470100
   24       -0.0027519000
   25       -0.0027519000
   26       -0.0000000000
   27        0.0000000000
   28       -0.0000000000
   29       -0.0130637100
   30       -0.0178768100
   31       -0.0178768100
   32        0.0000000000
   33       -0.0000000000
   34        0.0000000000
   35       -0.0010623100
   36       -0.0048638200
   37       -0.0163512000
   38       -0.2722379100
   39       -0.2843171400
   40       -0.2147006500
   41       -0.1240138000
   42        0.1017648800
   43        0.0072449500
   44       -0.0001379700
   45       -0.0048808000
   46        0.0000000000
   47       -0.0000000000
   48       -0.0112481900
   49       -0.0000000000
   50        0.0000000000
   51        0.0373790200
   52       -0.0000000000
   53        0.0000000000
   54        0.0398616100
   55        0.0000000000
   56        0.0000000000
   57        0.0076470100
   58        0.0027519000
   59        0.0027519000
   60       -0.0000000000
   61        0.0000000000
   62       -0.0000000000
   63        0.0130637100
   64        0.0178768100
   65        0.0178768100
   66        0.0000000000
   67       -0.0000000000
   68        0.0000000000
 Ene=          0.00419077
 Spin= Alpha
 Occup=        0.00000000
    1        0.6831689700
    2        0.0643090900
    3       -1.0256385400
    4        0.6740979300
    5        0.0568018700
    6        0.1124471000
    7        0.0370224500
    8       -0.0351624400
    9       -0.0033634300
   10        0.0001665600
   11       -1.3681730000
   12        0.0000000000
   13       -0.0000000000
   14        0.4296701100
   15       -0.0000000000
   16        0.0000000000
   17       -0.4757813000
   18        0.0000000000
   19       -0.0000000000
   20        0.0468057800
   21       -0.0000000000
   22        0.0000000000
   23       -0.4694631400
   24       -0.0255831300
   25       -0.0255831300
   26        0.0000000000
   27       -0.0000000000
   28       -0.0000000000
   29        0.0720962200
   30       -0.0878367000
   31       -0.0878367000
   32       -0.0000000000
   33        0.0000000000
   34        0.0000000000
   35        0.6831689700
   36        0.0643090900
   37       -1.0256385400
   38        0.6740979300
   39        0.0568018700
   40        0.1124471000
   41        0.0370224500
   42       -0.0351624400
   43       -0.0033634300
   44        0.0001665600
   45        1.3681730000
   46       -0.0000000000
   47        0.0000000000
   48       -0.4296701100
   49        0.0000000000
   50       -0.0000000000
   51        0.4757813000
   52       -0.0000000000
   53        0.0000000000
   54       -0.0468057800
   55        0.0000000000
   56       -0.0000000000
   57       -0.4694631400
   58       -0.0255831300
   59       -0.0255831300
   60        0.0000000000
   61       -0.0000000000
   62        0.0000000000
   63        0.0720962200
   64       -0.0878367000
   65       -0.0878367000
   66       -0.0000000000
   67        0.0000000000
   68       -0.0000000000
 Ene=          0.00612859
 Spin= Alpha
 Occup=        0.00000000
    1        0.0000000000
    2        0.0000000000
    3        0.0000000000
    4        0.0000000000
    5        0.0000000000
    6        0.0000000000
    7       -0.0000000000
    8        0.0000000000
    9       -0.0000000000
   10        0.0000000000
   11       -0.0000000000
   12       -0.0123907500
   13       -0.0242966400
   14       -0.0000000000
   15        0.0384003400
   16        0.0752980700
   17       -0.0000000000
   18       -0.1337570300
   19       -0.2622801200
   20        0.0000000000
   21       -0.1850326100
   22       -0.3628248600
   23       -0.0000000000
   24        0.0000000000
   25        0.0000000000
   26        0.0040905500
   27        0.0080210300
   28        0.0000000000
   29        0.0000000000
   30        0.0000000000
   31        0.0000000000
   32       -0.0156283900
   33       -0.0306452500
   34       -0.0000000000
   35        0.0000000000
   36        0.0000000000
   37        0.0000000000
   38       -0.0000000000
   39        0.0000000000
   40       -0.0000000000
   41        0.0000000000
   42        0.0000000000
   43       -0.0000000000
   44        0.0000000000
   45        0.0000000000
   46       -0.0123907500
   47       -0.0242966400
   48       -0.0000000000
   49        0.0384003400
   50        0.0752980700
   51        0.0000000000
   52       -0.1337570300
   53       -0.2622801200
   54        0.0000000000
   55       -0.1850326100
   56       -0.3628248600
   57       -0.0000000000
   58       -0.0000000000
   59       -0.0000000000
   60       -0.0040905500
   61       -0.0080210300
   62       -0.0000000000
   63       -0.0000000000
   64       -0.0000000000
   65       -0.0000000000
   66        0.0156283900
   67        0.0306452500
   68        0.0000000000
 Ene=          0.00612859
 Spin= Alpha
 Occup=        0.00000000
    1       -0.0000000000
    2        0.0000000000
    3       -0.0000000000
    4       -0.0000000000
    5        0.0000000000
    6       -0.0000000000
    7        0.0000000000
    8       -0.0000000000
    9       -0.0000000000
   10        0.0000000000
   11        0.0000000000
   12       -0.0242966400
   13        0.0123907500
   14       -0.0000000000
   15        0.0752980700
   16       -0.0384003400
   17        0.0000000000
   18       -0.2622801200
   19        0.1337570300
   20       -0.0000000000
   21       -0.3628248600
   22        0.1850326100
   23        0.0000000000
   24       -0.0000000000
   25       -0.0000000000
   26        0.0080210300
   27       -0.0040905500
   28        0.0000000000
   29       -0.0000000000
   30       -0.0000000000
   31       -0.0000000000
   32       -0.0306452500
   33        0.0156283900
   34        0.0000000000
   35       -0.0000000000
   36        0.0000000000
   37        0.0000000000
   38       -0.0000000000
   39        0.0000000000
   40       -0.0000000000
   41       -0.0000000000
   42        0.0000000000
   43       -0.0000000000
   44        0.0000000000
   45       -0.0000000000
   46       -0.0242966400
   47        0.0123907500
   48        0.0000000000
   49        0.0752980700
   50       -0.0384003400
   51       -0.0000000000
   52       -0.2622801200
   53        0.1337570300
   54        0.0000000000
   55       -0.3628248600
   56        0.1850326100
   57        0.0000000000
   58        0.0000000000
   59        0.0000000000
   60       -0.0080210300
   61        0.0040905500
   62        0.0000000000
   63       -0.0000000000
   64        0.0000000000
   65       -0.0000000000
   66        0.0306452500
   67       -0.0156283900
   68       -0.0000000000
 Ene=          0.00850957
 Spin= Alpha
 Occup=        0.00000000
    1       -0.0000000000
    2        0.0000000000
    3        0.0000000000
    4        0.0000000000
    5       -0.0000000000
    6       -0.0000000000
    7        0.0000000000
    8       -0.0000000000
    9        0.0000000000
   10        0.0000000000
   11       -0.0000000000
   12        0.2478255700
   13        0.1792349600
   14        0.0000000000
   15       -0.0004209000
   16       -0.0003044100
   17        0.0000000000
   18        0.0614217700
   19        0.0444220800
   20        0.0000000000
   21        0.5955598700
   22        0.4307269500
   23        0.0000000000
   24        0.0000000000
   25        0.0000000000
   26        0.0434865700
   27        0.0314508100
   28        0.0000000000
   29        0.0000000000
   30        0.0000000000
   31        0.0000000000
   32        0.0109674300
   33        0.0079319800
   34       -0.0000000000
   35        0.0000000000
   36       -0.0000000000
   37       -0.0000000000
   38       -0.0000000000
   39        0.0000000000
   40       -0.0000000000
   41        0.0000000000
   42       -0.0000000000
   43        0.0000000000
   44       -0.0000000000
   45       -0.0000000000
   46       -0.2478255700
   47       -0.1792349600
   48        0.0000000000
   49        0.0004209000
   50        0.0003044100
   51        0.0000000000
   52       -0.0614217700
   53       -0.0444220800
   54        0.0000000000
   55       -0.5955598700
   56       -0.4307269500
   57        0.0000000000
   58       -0.0000000000
   59       -0.0000000000
   60        0.0434865700
   61        0.0314508100
   62        0.0000000000
   63       -0.0000000000
   64       -0.0000000000
   65       -0.0000000000
   66        0.0109674300
   67        0.0079319800
   68       -0.0000000000
 Ene=          0.00850957
 Spin= Alpha
 Occup=        0.00000000
    1        0.0000000000
    2        0.0000000000
    3       -0.0000000000
    4        0.0000000000
    5        0.0000000000
    6        0.0000000000
    7        0.0000000000
    8       -0.0000000000
    9        0.0000000000
   10        0.0000000000
   11        0.0000000000
   12        0.1792349600
   13       -0.2478255700
   14        0.0000000000
   15       -0.0003044100
   16        0.0004209000
   17       -0.0000000000
   18        0.0444220800
   19       -0.0614217700
   20       -0.0000000000
   21        0.4307269500
   22       -0.5955598700
   23        0.0000000000
   24        0.0000000000
   25        0.0000000000
   26        0.0314508100
   27       -0.0434865700
   28       -0.0000000000
   29        0.0000000000
   30        0.0000000000
   31        0.0000000000
   32        0.0079319800
   33       -0.0109674300
   34       -0.0000000000
   35       -0.0000000000
   36       -0.0000000000
   37        0.0000000000
   38        0.0000000000
   39       -0.0000000000
   40       -0.0000000000
   41       -0.0000000000
   42        0.0000000000
   43       -0.0000000000
   44        0.0000000000
   45       -0.0000000000
   46       -0.1792349600
   47        0.2478255700
   48        0.0000000000
   49        0.0003044100
   50       -0.0004209000
   51       -0.0000000000
   52       -0.0444220800
   53        0.0614217700
   54       -0.0000000000
   55       -0.4307269500
   56        0.5955598700
   57        0.0000000000
   58       -0.0000000000
   59       -0.0000000000
   60        0.0314508100
   61       -0.0434865700
   62        0.0000000000
   63       -0.0000000000
   64       -0.0000000000
   65       -0.0000000000
   66        0.0079319800
   67       -0.0109674300
   68        0.0000000000
 Ene=          0.00932540
 Spin= Alpha
 Occup=        0.00000000
    1       -0.0282130800
    2        0.0032450100
    3        2.6115726600
    4        0.1866483900
    5       -0.5660099500
    6       -0.0194686500
    7       -0.0806709200
    8        0.0530927000
    9        0.0016508200
   10        0.0002412600
   11        0.1387106700
   12       -0.0000000000
   13       -0.0000000000
   14       -0.0259014100
   15        0.0000000000
   16        0.0000000000
   17        1.0057977400
   18       -0.0000000000
   19       -0.0000000000
   20        0.3222350000
   21        0.0000000000
   22       -0.0000000000
   23        0.1050364800
   24        0.1822749600
   25        0.1822749600
   26       -0.0000000000
   27       -0.0000000000
   28        0.0000000000
   29        0.2623868800
   30        0.1197451400
   31        0.1197451400
   32        0.0000000000
   33        0.0000000000
   34       -0.0000000000
   35        0.0282130800
   36       -0.0032450100
   37       -2.6115726600
   38       -0.1866483900
   39        0.5660099500
   40        0.0194686500
   41        0.0806709200
   42       -0.0530927000
   43       -0.0016508200
   44       -0.0002412600
   45        0.1387106700
   46        0.0000000000
   47        0.0000000000
   48       -0.0259014100
   49       -0.0000000000
   50       -0.0000000000
   51        1.0057977400
   52       -0.0000000000
   53       -0.0000000000
   54        0.3222350000
   55        0.0000000000
   56        0.0000000000
   57       -0.1050364800
   58       -0.1822749600
   59       -0.1822749600
   60       -0.0000000000
   61       -0.0000000000
   62       -0.0000000000
   63       -0.2623868800
   64       -0.1197451400
   65       -0.1197451400
   66        0.0000000000
   67       -0.0000000000
   68        0.0000000000
 Ene=          0.00968232
 Spin= Alpha
 Occup=        0.00000000
    1        0.3828650000
    2       -0.2786419300
    3       -0.4603459500
    4        0.9743745500
    5       -0.5077709200
    6        0.0524229800
    7       -0.0582634900
    8        0.0315749600
    9       -0.0004378400
   10        0.0003456200
   11       -1.4455115000
   12        0.0000000000
   13        0.0000000000
   14        0.3956611800
   15       -0.0000000000
   16       -0.0000000000
   17       -0.5072676700
   18        0.0000000000
   19       -0.0000000000
   20        0.7249253900
   21       -0.0000000000
   22        0.0000000000
   23       -0.4490883100
   24        0.0225484500
   25        0.0225484500
   26        0.0000000000
   27        0.0000000000
   28        0.0000000000
   29        0.2218235700
   30        0.0774797200
   31        0.0774797200
   32       -0.0000000000
   33       -0.0000000000
   34       -0.0000000000
   35        0.3828650000
   36       -0.2786419300
   37       -0.4603459500
   38        0.9743745500
   39       -0.5077709200
   40        0.0524229800
   41       -0.0582634900
   42        0.0315749600
   43       -0.0004378400
   44        0.0003456200
   45        1.4455115000
   46       -0.0000000000
   47       -0.0000000000
   48       -0.3956611800
   49        0.0000000000
   50        0.0000000000
   51        0.5072676700
   52       -0.0000000000
   53        0.0000000000
   54       -0.7249253900
   55        0.0000000000
   56       -0.0000000000
   57       -0.4490883100
   58        0.0225484500
   59        0.0225484500
   60        0.0000000000
   61        0.0000000000
   62       -0.0000000000
   63        0.2218235700
   64        0.0774797200
   65        0.0774797200
   66       -0.0000000000
   67       -0.0000000000
   68        0.0000000000
 Ene=          0.01334090
 Spin= Alpha
 Occup=        0.00000000
    1       -0.0000000000
    2        0.0000000000
    3        0.0000000000
    4       -0.0000000000
    5        0.0000000000
    6       -0.0000000000
    7        0.0000000000
    8       -0.0000000000
    9       -0.0000000000
   10       -0.0000000000
   11        0.0000000000
   12        0.0418096000
   13        0.0559857900
   14       -0.0000000000
   15       -0.1374701300
   16       -0.1840814800
   17        0.0000000000
   18        0.5839726900
   19        0.7819775900
   20        0.0000000000
   21       -0.5602901500
   22       -0.7502651200
   23        0.0000000000
   24        0.0000000000
   25        0.0000000000
   26       -0.0079173700
   27       -0.0106018800
   28       -0.0000000000
   29       -0.0000000000
   30        0.0000000000
   31        0.0000000000
   32        0.0454289300
   33        0.0608323000
   34        0.0000000000
   35       -0.0000000000
   36        0.0000000000
   37        0.0000000000
   38       -0.0000000000
   39        0.0000000000
   40        0.0000000000
   41        0.0000000000
   42       -0.0000000000
   43       -0.0000000000
   44        0.0000000000
   45       -0.0000000000
   46        0.0418096000
   47        0.0559857900
   48        0.0000000000
   49       -0.1374701300
   50       -0.1840814800
   51       -0.0000000000
   52        0.5839726900
   53        0.7819775900
   54       -0.0000000000
   55       -0.5602901500
   56       -0.7502651200
   57        0.0000000000
   58       -0.0000000000
   59       -0.0000000000
   60        0.0079173700
   61        0.0106018800
   62        0.0000000000
   63       -0.0000000000
   64       -0.0000000000
   65       -0.0000000000
   66       -0.0454289300
   67       -0.0608323000
   68       -0.0000000000
 Ene=          0.01334090
 Spin= Alpha
 Occup=        0.00000000
    1        0.0000000000
    2       -0.0000000000
    3       -0.0000000000
    4        0.0000000000
    5       -0.0000000000
    6        0.0000000000
    7       -0.0000000000
    8        0.0000000000
    9        0.0000000000
   10       -0.0000000000
   11       -0.0000000000
   12       -0.0559857900
   13        0.0418096000
   14        0.0000000000
   15        0.1840814800
   16       -0.1374701300
   17       -0.0000000000
   18       -0.7819775900
   19        0.5839726900
   20       -0.0000000000
   21        0.7502651200
   22       -0.5602901500
   23       -0.0000000000
   24       -0.0000000000
   25       -0.0000000000
   26        0.0106018800
   27       -0.0079173700
   28        0.0000000000
   29       -0.0000000000
   30       -0.0000000000
   31       -0.0000000000
   32       -0.0608323000
   33        0.0454289300
   34       -0.0000000000
   35        0.0000000000
   36       -0.0000000000
   37        0.0000000000
   38        0.0000000000
   39       -0.0000000000
   40       -0.0000000000
   41       -0.0000000000
   42        0.0000000000
   43        0.0000000000
   44       -0.0000000000
   45        0.0000000000
   46       -0.0559857900
   47        0.0418096000
   48       -0.0000000000
   49        0.1840814800
   50       -0.1374701300
   51        0.0000000000
   52       -0.7819775900
   53        0.5839726900
   54        0.0000000000
   55        0.7502651200
   56       -0.5602901500
   57       -0.0000000000
   58        0.0000000000
   59        0.0000000000
   60       -0.0106018800
   61        0.0079173700
   62       -0.0000000000
   63        0.0000000000
   64        0.0000000000
   65        0.0000000000
   66        0.0608323000
   67       -0.0454289300
   68        0.0000000000
 Ene=          0.01360760
 Spin= Alpha
 Occup=        0.00000000
    1        0.2066203100
    2       -0.1357504400
    3       -0.3018998400
    4        1.5223159000
    5       -0.9097235700
    6       -0.0056888000
    7       -0.1006107400
    8        0.0643725400
    9        0.0016866500
   10        0.0003401500
   11       -0.9096522500
   12        0.0000000000
   13        0.0000000000
   14        0.1378871300
   15       -0.0000000000
   16       -0.0000000000
   17       -0.3433466200
   18        0.0000000000
   19        0.0000000000
   20       -0.1646717900
   21       -0.0000000000
   22       -0.0000000000
   23       -0.2742338000
   24        0.0182196200
   25        0.0182196200
   26        0.0000000000
   27        0.0000000000
   28        0.0000000000
   29        0.0853226400
   30        0.0671175400
   31        0.0671175400
   32       -0.0000000000
   33       -0.0000000000
   34       -0.0000000000
   35        0.2066203100
   36       -0.1357504400
   37       -0.3018998400
   38        1.5223159000
   39       -0.9097235700
   40       -0.0056888000
   41       -0.1006107400
   42        0.0643725400
   43        0.0016866500
   44        0.0003401500
   45        0.9096522500
   46       -0.0000000000
   47       -0.0000000000
   48       -0.1378871300
   49        0.0000000000
   50        0.0000000000
   51        0.3433466200
   52        0.0000000000
   53        0.0000000000
   54        0.1646717900
   55       -0.0000000000
   56       -0.0000000000
   57       -0.2742338000
   58        0.0182196200
   59        0.0182196200
   60        0.0000000000
   61        0.0000000000
   62       -0.0000000000
   63        0.0853226400
   64        0.0671175400
   65        0.0671175400
   66       -0.0000000000
   67       -0.0000000000
   68        0.0000000000
 Ene=          0.01419640
 Spin= Alpha
 Occup=        0.00000000
    1       -0.0144584200
    2       -0.0339488100
    3        0.2677682400
    4        0.0958611200
    5       -0.0521441800
    6        0.0729257300
    7        0.0013157000
    8       -0.0081331700
    9       -0.0017640500
   10        0.0001769500
   11        0.0684140900
   12       -0.0000000000
   13       -0.0000000000
   14        0.0666147200
   15        0.0000000000
   16       -0.0000000000
   17       -0.1077590900
   18       -0.0000000000
   19       -0.0000000000
   20        1.0760208900
   21        0.0000000000
   22        0.0000000000
   23        0.0821602100
   24        0.0651981100
   25        0.0651981100
   26       -0.0000000000
   27       -0.0000000000
   28        0.0000000000
   29        0.1494842200
   30        0.1518774000
   31        0.1518774000
   32        0.0000000000
   33       -0.0000000000
   34       -0.0000000000
   35        0.0144584200
   36        0.0339488100
   37       -0.2677682400
   38       -0.0958611200
   39        0.0521441800
   40       -0.0729257300
   41       -0.0013157000
   42        0.0081331700
   43        0.0017640500
   44       -0.0001769500
   45        0.0684140900
   46        0.0000000000
   47        0.0000000000
   48        0.0666147200
   49       -0.0000000000
   50        0.0000000000
   51       -0.1077590900
   52        0.0000000000
   53       -0.0000000000
   54        1.0760208900
   55       -0.0000000000
   56       -0.0000000000
   57       -0.0821602100
   58       -0.0651981100
   59       -0.0651981100
   60       -0.0000000000
   61       -0.0000000000
   62       -0.0000000000
   63       -0.1494842200
   64       -0.1518774000
   65       -0.1518774000
   66        0.0000000000
   67       -0.0000000000
   68        0.0000000000
 Ene=          0.01802980
 Spin= Alpha
 Occup=        0.00000000
    1        0.0167442700
    2       -0.0525271500
    3       -4.6156472300
    4        2.8052327700
    5       -1.2319012400
    6        0.0588995300
    7       -0.1103467000
    8        0.0640972900
    9        0.0003699400
   10        0.0005269600
   11       -0.0867947700
   12       -0.0000000000
   13       -0.0000000000
   14        0.0986322300
   15        0.0000000000
   16        0.0000000000
   17       -1.9495503500
   18       -0.0000000000
   19        0.0000000000
   20        0.2595912100
   21        0.0000000000
   22       -0.0000000000
   23       -0.0193535300
   24       -0.1489383200
   25       -0.1489383200
   26       -0.0000000000
   27       -0.0000000000
   28        0.0000000000
   29       -0.1608497500
   30        0.0441795200
   31        0.0441795200
   32        0.0000000000
   33        0.0000000000
   34       -0.0000000000
   35       -0.0167442700
   36        0.0525271500
   37        4.6156472300
   38       -2.8052327700
   39        1.2319012400
   40       -0.0588995300
   41        0.1103467000
   42       -0.0640972900
   43       -0.0003699400
   44       -0.0005269600
   45       -0.0867947700
   46        0.0000000000
   47        0.0000000000
   48        0.0986322300
   49       -0.0000000000
   50       -0.0000000000
   51       -1.9495503500
   52        0.0000000000
   53       -0.0000000000
   54        0.2595912100
   55       -0.0000000000
   56        0.0000000000
   57        0.0193535300
   58        0.1489383200
   59        0.1489383200
   60       -0.0000000000
   61       -0.0000000000
   62       -0.0000000000
   63        0.1608497500
   64       -0.0441795200
   65       -0.0441795200
   66        0.0000000000
   67        0.0000000000
   68        0.0000000000
 Ene=          0.01968030
 Spin= Alpha
 Occup=        0.00000000
    1        0.0000000000
    2       -0.0000000000
    3        0.0000000000
    4       -0.0000000000
    5        0.0000000000
    6       -0.0000000000
    7        0.0000000000
    8       -0.0000000000
    9        0.0000000000
   10        0.0000000000
   11        0.0000000000
   12       -7.4170278500
   13        0.2051975700
   14       -0.0000000000
   15        1.6351444400
   16       -0.0452374800
   17        0.0000000000
   18       -1.7503945700
   19        0.0484259600
   20       -0.0000000000
   21        0.8336607600
   22       -0.0230638400
   23        0.0000000000
   24        0.0000000000
   25        0.0000000000
   26       -1.3528560500
   27        0.0374277600
   28       -0.0000000000
   29       -0.0000000000
   30        0.0000000000
   31        0.0000000000
   32        0.3269529200
   33       -0.0090453900
   34        0.0000000000
   35       -0.0000000000
   36        0.0000000000
   37       -0.0000000000
   38        0.0000000000
   39       -0.0000000000
   40       -0.0000000000
   41       -0.0000000000
   42        0.0000000000
   43       -0.0000000000
   44        0.0000000000
   45       -0.0000000000
   46        7.4170278500
   47       -0.2051975700
   48       -0.0000000000
   49       -1.6351444400
   50        0.0452374800
   51        0.0000000000
   52        1.7503945700
   53       -0.0484259600
   54        0.0000000000
   55       -0.8336607600
   56        0.0230638400
   57        0.0000000000
   58       -0.0000000000
   59       -0.0000000000
   60       -1.3528560500
   61        0.0374277600
   62        0.0000000000
   63        0.0000000000
   64       -0.0000000000
   65       -0.0000000000
   66        0.3269529200
   67       -0.0090453900
   68       -0.0000000000
 Ene=          0.01968030
 Spin= Alpha
 Occup=        0.00000000
    1       -0.0000000000
    2        0.0000000000
    3        0.0000000000
    4       -0.0000000000
    5        0.0000000000
    6       -0.0000000000
    7        0.0000000000
    8       -0.0000000000
    9        0.0000000000
   10       -0.0000000000
   11       -0.0000000000
   12        0.2051975700
   13        7.4170278500
   14        0.0000000000
   15       -0.0452374800
   16       -1.6351444400