 Molden2AIM, Version 3.1.0 (02/25/2015)           Time: Thu Oct 17 19:56:09 2024
GAUSSIAN             68 MOL ORBITALS     68 PRIMITIVES        2 NUCLEI
  Be   1    (CENTRE  1)   0.00000000  0.00000000  0.00000000  CHARGE =  4.0
  Be   2    (CENTRE  2)  55.40000000  0.00000000  0.00000000  CHARGE =  4.0
CENTRE ASSIGNMENTS    1  1  1  1  1  1  1  1  1  1  1  1  1  1  1  1  1  1  1  1
CENTRE ASSIGNMENTS    1  1  1  1  1  1  1  1  1  1  1  1  1  1  2  2  2  2  2  2
CENTRE ASSIGNMENTS    2  2  2  2  2  2  2  2  2  2  2  2  2  2  2  2  2  2  2  2
CENTRE ASSIGNMENTS    2  2  2  2  2  2  2  2
TYPE ASSIGNMENTS      1  1  1  1  1  1  1  1  1  1  2  3  4  2  3  4  2  3  4  2
TYPE ASSIGNMENTS      3  4  5  6  7  8  9 10  5  6  7  8  9 10  1  1  1  1  1  1
TYPE ASSIGNMENTS      1  1  1  1  2  3  4  2  3  4  2  3  4  2  3  4  5  6  7  8
TYPE ASSIGNMENTS      9 10  5  6  7  8  9 10
EXPONENTS  0.1000000D-03 0.3000000D-03 0.9000000D-03 0.2700000D-02 0.8100000D-02
EXPONENTS  0.2430000D-01 0.7290000D-01 0.2187000D+00 0.6561000D+00 0.1968300D+01
EXPONENTS  0.1000000D-03 0.1000000D-03 0.1000000D-03 0.3000000D-03 0.3000000D-03
EXPONENTS  0.3000000D-03 0.9000000D-03 0.9000000D-03 0.9000000D-03 0.2700000D-02
EXPONENTS  0.2700000D-02 0.2700000D-02 0.1000000D-03 0.1000000D-03 0.1000000D-03
EXPONENTS  0.1000000D-03 0.1000000D-03 0.1000000D-03 0.3000000D-03 0.3000000D-03
EXPONENTS  0.3000000D-03 0.3000000D-03 0.3000000D-03 0.3000000D-03 0.1000000D-03
EXPONENTS  0.3000000D-03 0.9000000D-03 0.2700000D-02 0.8100000D-02 0.2430000D-01
EXPONENTS  0.7290000D-01 0.2187000D+00 0.6561000D+00 0.1968300D+01 0.1000000D-03
EXPONENTS  0.1000000D-03 0.1000000D-03 0.3000000D-03 0.3000000D-03 0.3000000D-03
EXPONENTS  0.9000000D-03 0.9000000D-03 0.9000000D-03 0.2700000D-02 0.2700000D-02
EXPONENTS  0.2700000D-02 0.1000000D-03 0.1000000D-03 0.1000000D-03 0.1000000D-03
EXPONENTS  0.1000000D-03 0.1000000D-03 0.3000000D-03 0.3000000D-03 0.3000000D-03
EXPONENTS  0.3000000D-03 0.3000000D-03 0.3000000D-03
MO    1     MO 0.0        OCC NO =    1.0000000  ORB. ENERGY =    0.003265
  0.23577933D-03  0.28931192D-03 -0.19316179D-02 -0.21154337D-03 -0.28091965D-02
 -0.48499158D-02 -0.72917158D-02  0.13292730D-01  0.19981690D-02 -0.44543249D-04
 -0.45416868D-05  0.00000000D+00  0.00000000D+00  0.63884756D-05 -0.00000000D+00
  0.00000000D+00 -0.44678149D-04  0.00000000D+00 -0.00000000D+00 -0.15139168D-03
 -0.00000000D+00  0.00000000D+00 -0.28381318D-07 -0.37859697D-08 -0.37859697D-08
  0.00000000D+00  0.00000000D+00 -0.00000000D+00 -0.73782758D-07 -0.87734046D-07
 -0.87734046D-07  0.00000000D+00  0.00000000D+00  0.00000000D+00  0.23577933D-03
  0.28931192D-03 -0.19316179D-02 -0.21154337D-03 -0.28091965D-02 -0.48499158D-02
 -0.72917158D-02  0.13292730D-01  0.19981690D-02 -0.44543249D-04  0.45416868D-05
 -0.00000000D+00 -0.00000000D+00 -0.63884756D-05  0.00000000D+00 -0.00000000D+00
  0.44678149D-04 -0.00000000D+00 -0.00000000D+00  0.15139168D-03  0.00000000D+00
  0.00000000D+00 -0.28381318D-07 -0.37859697D-08 -0.37859697D-08  0.00000000D+00
  0.00000000D+00  0.00000000D+00 -0.73782758D-07 -0.87734046D-07 -0.87734046D-07
  0.00000000D+00  0.00000000D+00 -0.00000000D+00
MO    2     MO 0.0        OCC NO =    0.0000000  ORB. ENERGY =    0.004448
  0.14480814D-04 -0.17106155D-02 -0.72784915D-04 -0.34258818D-02 -0.24770298D-02
 -0.85280213D-02 -0.96719732D-02  0.18784080D-01  0.33079388D-02 -0.22007516D-03
 -0.45994476D-06 -0.00000000D+00 -0.00000000D+00 -0.37265505D-04  0.00000000D+00
  0.00000000D+00  0.29218573D-04  0.00000000D+00 -0.00000000D+00 -0.25661929D-03
 -0.00000000D+00  0.00000000D+00 -0.42493414D-08 -0.35155281D-08 -0.35155281D-08
 -0.00000000D+00 -0.00000000D+00 -0.00000000D+00 -0.27627962D-06 -0.66067080D-07
 -0.66067080D-07  0.00000000D+00  0.00000000D+00  0.00000000D+00 -0.14480814D-04
  0.17106155D-02  0.72784915D-04  0.34258818D-02  0.24770298D-02  0.85280213D-02
  0.96719732D-02 -0.18784080D-01 -0.33079388D-02  0.22007516D-03 -0.45994476D-06
  0.00000000D+00  0.00000000D+00 -0.37265505D-04 -0.00000000D+00 -0.00000000D+00
  0.29218573D-04  0.00000000D+00 -0.00000000D+00 -0.25661929D-03 -0.00000000D+00
  0.00000000D+00  0.42493414D-08  0.35155281D-08  0.35155281D-08 -0.00000000D+00
 -0.00000000D+00  0.00000000D+00  0.27627962D-06  0.66067080D-07  0.66067080D-07
  0.00000000D+00 -0.00000000D+00 -0.00000000D+00
MO    3     MO 0.0        OCC NO =    0.0000000  ORB. ENERGY =    0.007040
 -0.37670411D-03 -0.20794326D-03  0.30992003D-02 -0.61709495D-02 -0.14291125D-02
 -0.88046740D-02 -0.79182680D-02  0.16355556D-01  0.32720578D-02 -0.31654013D-03
  0.10364560D-04  0.00000000D+00  0.00000000D+00 -0.15505274D-04 -0.00000000D+00
 -0.00000000D+00  0.11865979D-03  0.00000000D+00  0.00000000D+00 -0.21362635D-03
 -0.00000000D+00 -0.00000000D+00  0.60278437D-07  0.31380983D-08  0.31380983D-08
  0.00000000D+00  0.00000000D+00  0.00000000D+00  0.10354166D-07  0.69845927D-07
  0.69845927D-07 -0.00000000D+00 -0.00000000D+00 -0.00000000D+00 -0.37670411D-03
 -0.20794326D-03  0.30992003D-02 -0.61709495D-02 -0.14291125D-02 -0.88046740D-02
 -0.79182680D-02  0.16355556D-01  0.32720578D-02 -0.31654013D-03 -0.10364560D-04
 -0.00000000D+00 -0.00000000D+00  0.15505274D-04  0.00000000D+00  0.00000000D+00
 -0.11865979D-03 -0.00000000D+00 -0.00000000D+00  0.21362635D-03  0.00000000D+00
  0.00000000D+00  0.60278437D-07  0.31380983D-08  0.31380983D-08  0.00000000D+00
  0.00000000D+00 -0.00000000D+00  0.10354166D-07  0.69845927D-07  0.69845927D-07
 -0.00000000D+00 -0.00000000D+00  0.00000000D+00
MO    4     MO 0.0        OCC NO =    0.0000000  ORB. ENERGY =    0.013445
  0.74373168D-05  0.43047611D-02 -0.31718826D-02 -0.18736715D-02  0.11329297D-01
  0.38119230D-02  0.10964684D-01 -0.17979325D-01 -0.19740613D-02 -0.19033623D-03
 -0.15179398D-05  0.00000000D+00  0.00000000D+00  0.79576591D-04 -0.00000000D+00
 -0.00000000D+00 -0.57653066D-04  0.00000000D+00  0.00000000D+00 -0.35234920D-03
 -0.00000000D+00 -0.00000000D+00 -0.14930065D-07 -0.11658639D-07 -0.11658639D-07
  0.00000000D+00  0.00000000D+00  0.00000000D+00  0.30354296D-06 -0.14616820D-06
 -0.14616820D-06 -0.00000000D+00 -0.00000000D+00 -0.00000000D+00 -0.74373168D-05
 -0.43047611D-02  0.31718826D-02  0.18736715D-02 -0.11329297D-01 -0.38119230D-02
 -0.10964684D-01  0.17979325D-01  0.19740613D-02  0.19033623D-03 -0.15179398D-05
 -0.00000000D+00 -0.00000000D+00  0.79576591D-04  0.00000000D+00  0.00000000D+00
 -0.57653066D-04 -0.00000000D+00 -0.00000000D+00 -0.35234920D-03  0.00000000D+00
  0.00000000D+00  0.14930065D-07  0.11658639D-07  0.11658639D-07  0.00000000D+00
  0.00000000D+00 -0.00000000D+00 -0.30354296D-06  0.14616820D-06  0.14616820D-06
 -0.00000000D+00 -0.00000000D+00  0.00000000D+00
MO    5     MO 0.0        OCC NO =    0.0000000  ORB. ENERGY =    0.015383
  0.00000000D+00 -0.00000000D+00  0.00000000D+00 -0.00000000D+00  0.00000000D+00
 -0.00000000D+00  0.00000000D+00 -0.00000000D+00  0.00000000D+00 -0.00000000D+00
 -0.00000000D+00 -0.71038419D-06 -0.51949786D-06 -0.00000000D+00  0.71616372D-05
  0.52372449D-05  0.00000000D+00 -0.10107767D-03 -0.73917248D-04 -0.00000000D+00
 -0.13031727D-03 -0.95299919D-04 -0.00000000D+00 -0.00000000D+00 -0.00000000D+00
  0.16747943D-07  0.12247630D-07  0.00000000D+00 -0.00000000D+00 -0.00000000D+00
 -0.00000000D+00 -0.18525431D-06 -0.13547490D-06 -0.00000000D+00  0.00000000D+00
  0.00000000D+00 -0.00000000D+00 -0.00000000D+00  0.00000000D+00 -0.00000000D+00
  0.00000000D+00 -0.00000000D+00 -0.00000000D+00 -0.00000000D+00  0.00000000D+00
 -0.71038419D-06 -0.51949786D-06 -0.00000000D+00  0.71616372D-05  0.52372449D-05
  0.00000000D+00 -0.10107767D-03 -0.73917248D-04  0.00000000D+00 -0.13031727D-03
 -0.95299919D-04 -0.00000000D+00  0.00000000D+00  0.00000000D+00 -0.16747943D-07
 -0.12247630D-07 -0.00000000D+00  0.00000000D+00 -0.00000000D+00 -0.00000000D+00
  0.18525431D-06  0.13547490D-06  0.00000000D+00
MO    6     MO 0.0        OCC NO =    0.0000000  ORB. ENERGY =    0.015383
 -0.00000000D+00  0.00000000D+00 -0.00000000D+00  0.00000000D+00 -0.00000000D+00
  0.00000000D+00 -0.00000000D+00  0.00000000D+00 -0.00000000D+00  0.00000000D+00
  0.00000000D+00 -0.51949786D-06  0.71038419D-06  0.00000000D+00  0.52372449D-05
 -0.71616372D-05 -0.00000000D+00 -0.73917248D-04  0.10107767D-03  0.00000000D+00
 -0.95299919D-04  0.13031727D-03  0.00000000D+00 -0.00000000D+00 -0.00000000D+00
  0.12247630D-07 -0.16747943D-07 -0.00000000D+00  0.00000000D+00 -0.00000000D+00
 -0.00000000D+00 -0.13547490D-06  0.18525431D-06  0.00000000D+00 -0.00000000D+00
 -0.00000000D+00  0.00000000D+00 -0.00000000D+00  0.00000000D+00 -0.00000000D+00
  0.00000000D+00 -0.00000000D+00 -0.00000000D+00  0.00000000D+00 -0.00000000D+00
 -0.51949786D-06  0.71038419D-06  0.00000000D+00  0.52372449D-05 -0.71616372D-05
 -0.00000000D+00 -0.73917248D-04  0.10107767D-03  0.00000000D+00 -0.95299919D-04
  0.13031727D-03  0.00000000D+00  0.00000000D+00 -0.00000000D+00 -0.12247630D-07
  0.16747943D-07  0.00000000D+00 -0.00000000D+00  0.00000000D+00  0.00000000D+00
  0.13547490D-06 -0.18525431D-06 -0.00000000D+00
MO    7     MO 0.0        OCC NO =    0.0000000  ORB. ENERGY =    0.015713
  0.34137840D-03  0.67711867D-03  0.46099487D-04 -0.98631017D-02  0.16177518D-01
 -0.36172380D-03  0.11466634D-01 -0.16445302D-01 -0.77528045D-03 -0.51170849D-03
  0.46973012D-05 -0.00000000D+00  0.00000000D+00 -0.27436176D-05  0.00000000D+00
  0.00000000D+00  0.11831197D-03  0.00000000D+00  0.00000000D+00 -0.69376901D-03
  0.00000000D+00  0.00000000D+00  0.90168867D-08 -0.15626700D-07 -0.15626700D-07
  0.00000000D+00  0.00000000D+00  0.00000000D+00 -0.25761870D-06 -0.34151494D-06
 -0.34151494D-06  0.00000000D+00  0.00000000D+00 -0.00000000D+00  0.34137840D-03
  0.67711867D-03  0.46099487D-04 -0.98631017D-02  0.16177518D-01 -0.36172380D-03
  0.11466634D-01 -0.16445302D-01 -0.77528045D-03 -0.51170849D-03 -0.46973012D-05
  0.00000000D+00 -0.00000000D+00  0.27436176D-05 -0.00000000D+00 -0.00000000D+00
 -0.11831197D-03  0.00000000D+00  0.00000000D+00  0.69376901D-03 -0.00000000D+00
  0.00000000D+00  0.90168867D-08 -0.15626700D-07 -0.15626700D-07  0.00000000D+00
  0.00000000D+00 -0.00000000D+00 -0.25761870D-06 -0.34151494D-06 -0.34151494D-06
  0.00000000D+00  0.00000000D+00  0.00000000D+00
MO    8     MO 0.0        OCC NO =    0.0000000  ORB. ENERGY =    0.017906
 -0.00000000D+00  0.00000000D+00 -0.00000000D+00  0.00000000D+00  0.00000000D+00
 -0.00000000D+00  0.00000000D+00 -0.00000000D+00  0.00000000D+00 -0.00000000D+00
 -0.00000000D+00 -0.31862881D-06  0.12721540D-05  0.00000000D+00 -0.27105248D-06
  0.10822008D-05  0.00000000D+00 -0.44410451D-05  0.17731273D-04 -0.00000000D+00
 -0.14178915D-03  0.56610595D-03 -0.00000000D+00 -0.00000000D+00 -0.00000000D+00
 -0.11145431D-08  0.44499134D-08  0.00000000D+00 -0.00000000D+00 -0.00000000D+00
 -0.00000000D+00 -0.19271716D-07  0.76944058D-07 -0.00000000D+00  0.00000000D+00
 -0.00000000D+00  0.00000000D+00 -0.00000000D+00  0.00000000D+00  0.00000000D+00
  0.00000000D+00 -0.00000000D+00 -0.00000000D+00  0.00000000D+00 -0.00000000D+00
  0.31862881D-06 -0.12721540D-05  0.00000000D+00  0.27105248D-06 -0.10822008D-05
 -0.00000000D+00  0.44410451D-05 -0.17731273D-04  0.00000000D+00  0.14178915D-03
 -0.56610595D-03  0.00000000D+00 -0.00000000D+00 -0.00000000D+00 -0.11145431D-08
  0.44499134D-08 -0.00000000D+00 -0.00000000D+00  0.00000000D+00  0.00000000D+00
 -0.19271716D-07  0.76944058D-07  0.00000000D+00
MO    9     MO 0.0        OCC NO =    0.0000000  ORB. ENERGY =    0.017906
 -0.00000000D+00 -0.00000000D+00  0.00000000D+00 -0.00000000D+00  0.00000000D+00
  0.00000000D+00  0.00000000D+00 -0.00000000D+00  0.00000000D+00 -0.00000000D+00
 -0.00000000D+00 -0.12721540D-05 -0.31862881D-06 -0.00000000D+00 -0.10822008D-05
 -0.27105248D-06  0.00000000D+00 -0.17731273D-04 -0.44410451D-05 -0.00000000D+00
 -0.56610595D-03 -0.14178915D-03 -0.00000000D+00 -0.00000000D+00 -0.00000000D+00
 -0.44499134D-08 -0.11145431D-08 -0.00000000D+00 -0.00000000D+00 -0.00000000D+00
 -0.00000000D+00 -0.76944058D-07 -0.19271716D-07  0.00000000D+00 -0.00000000D+00
  0.00000000D+00  0.00000000D+00 -0.00000000D+00  0.00000000D+00 -0.00000000D+00
  0.00000000D+00 -0.00000000D+00  0.00000000D+00 -0.00000000D+00 -0.00000000D+00
  0.12721540D-05  0.31862881D-06 -0.00000000D+00  0.10822008D-05  0.27105248D-06
  0.00000000D+00  0.17731273D-04  0.44410451D-05  0.00000000D+00  0.56610595D-03
  0.14178915D-03  0.00000000D+00  0.00000000D+00  0.00000000D+00 -0.44499134D-08
 -0.11145431D-08  0.00000000D+00  0.00000000D+00  0.00000000D+00  0.00000000D+00
 -0.76944058D-07 -0.19271716D-07 -0.00000000D+00
MO   10     MO 0.0        OCC NO =    0.0000000  ORB. ENERGY =    0.019981
  0.54890380D-04 -0.16128700D-01  0.92465700D-02 -0.14770487D-01  0.12519340D-01
 -0.29670264D-02  0.62262654D-02 -0.74904832D-02  0.33981452D-03 -0.45923012D-03
  0.72493079D-06 -0.00000000D+00 -0.00000000D+00 -0.32526869D-03  0.00000000D+00
  0.00000000D+00  0.34921177D-03 -0.00000000D+00 -0.00000000D+00 -0.61002877D-03
  0.00000000D+00  0.00000000D+00  0.54638135D-08  0.68947853D-08  0.68947853D-08
 -0.00000000D+00 -0.00000000D+00 -0.00000000D+00 -0.18434097D-05 -0.59553847D-07
 -0.59553847D-07  0.00000000D+00  0.00000000D+00  0.00000000D+00 -0.54890380D-04
  0.16128700D-01 -0.92465700D-02  0.14770487D-01 -0.12519340D-01  0.29670264D-02
 -0.62262654D-02  0.74904832D-02 -0.33981452D-03  0.45923012D-03  0.72493079D-06
  0.00000000D+00  0.00000000D+00 -0.32526869D-03 -0.00000000D+00 -0.00000000D+00
  0.34921177D-03  0.00000000D+00 -0.00000000D+00 -0.61002877D-03  0.00000000D+00
  0.00000000D+00 -0.54638135D-08 -0.68947853D-08 -0.68947853D-08 -0.00000000D+00
 -0.00000000D+00  0.00000000D+00  0.18434097D-05  0.59553847D-07  0.59553847D-07
  0.00000000D+00  0.00000000D+00 -0.00000000D+00
MO   11     MO 0.0        OCC NO =    0.0000000  ORB. ENERGY =    0.021455
  0.00000000D+00 -0.00000000D+00 -0.00000000D+00  0.00000000D+00 -0.00000000D+00
  0.00000000D+00 -0.00000000D+00  0.00000000D+00 -0.00000000D+00  0.00000000D+00
 -0.00000000D+00  0.36692829D-06 -0.93136778D-06 -0.00000000D+00 -0.38955991D-05
  0.98881315D-05 -0.00000000D+00  0.68933832D-04 -0.17497354D-03  0.00000000D+00
 -0.32036647D-03  0.81318061D-03 -0.00000000D+00 -0.00000000D+00 -0.00000000D+00
 -0.81265329D-08  0.20627432D-07 -0.00000000D+00 -0.00000000D+00 -0.00000000D+00
 -0.00000000D+00  0.91332701D-07 -0.23182821D-06  0.00000000D+00 -0.00000000D+00
  0.00000000D+00  0.00000000D+00 -0.00000000D+00  0.00000000D+00 -0.00000000D+00
  0.00000000D+00 -0.00000000D+00  0.00000000D+00 -0.00000000D+00 -0.00000000D+00
  0.36692829D-06 -0.93136778D-06 -0.00000000D+00 -0.38955991D-05  0.98881315D-05
 -0.00000000D+00  0.68933832D-04 -0.17497354D-03  0.00000000D+00 -0.32036647D-03
  0.81318061D-03  0.00000000D+00  0.00000000D+00  0.00000000D+00  0.81265329D-08
 -0.20627432D-07 -0.00000000D+00  0.00000000D+00  0.00000000D+00  0.00000000D+00
 -0.91332701D-07  0.23182821D-06  0.00000000D+00
MO   12     MO 0.0        OCC NO =    0.0000000  ORB. ENERGY =    0.021455
  0.00000000D+00 -0.00000000D+00 -0.00000000D+00  0.00000000D+00 -0.00000000D+00
  0.00000000D+00 -0.00000000D+00  0.00000000D+00 -0.00000000D+00  0.00000000D+00
 -0.00000000D+00 -0.93136778D-06 -0.36692829D-06 -0.00000000D+00  0.98881315D-05
  0.38955991D-05 -0.00000000D+00 -0.17497354D-03 -0.68933832D-04  0.00000000D+00
  0.81318061D-03  0.32036647D-03 -0.00000000D+00 -0.00000000D+00 -0.00000000D+00
  0.20627432D-07  0.81265329D-08  0.00000000D+00 -0.00000000D+00 -0.00000000D+00
 -0.00000000D+00 -0.23182821D-06 -0.91332701D-07 -0.00000000D+00 -0.00000000D+00
  0.00000000D+00  0.00000000D+00 -0.00000000D+00  0.00000000D+00 -0.00000000D+00
  0.00000000D+00 -0.00000000D+00  0.00000000D+00  0.00000000D+00  0.00000000D+00
 -0.93136778D-06 -0.36692829D-06 -0.00000000D+00  0.98881315D-05  0.38955991D-05
  0.00000000D+00 -0.17497354D-03 -0.68933832D-04  0.00000000D+00  0.81318061D-03
  0.32036647D-03 -0.00000000D+00  0.00000000D+00  0.00000000D+00 -0.20627432D-07
 -0.81265329D-08 -0.00000000D+00  0.00000000D+00  0.00000000D+00  0.00000000D+00
  0.23182821D-06  0.91332701D-07  0.00000000D+00
MO   13     MO 0.0        OCC NO =    0.0000000  ORB. ENERGY =    0.025830
  0.44311377D-03  0.13383214D-03 -0.47179236D-03  0.71412169D-02 -0.11521129D-01
 -0.87797536D-03 -0.64707495D-02  0.98145388D-02  0.78267902D-03  0.20718947D-03
 -0.93043986D-05 -0.00000000D+00 -0.00000000D+00  0.13188968D-04  0.00000000D+00
  0.00000000D+00 -0.62010638D-04 -0.00000000D+00 -0.00000000D+00 -0.22697242D-03
  0.00000000D+00  0.00000000D+00 -0.58708584D-07 -0.64595441D-08 -0.64595441D-08
 -0.00000000D+00 -0.00000000D+00 -0.00000000D+00 -0.43150194D-07 -0.11482152D-06
 -0.11482152D-06 -0.00000000D+00  0.00000000D+00  0.00000000D+00  0.44311377D-03
  0.13383214D-03 -0.47179236D-03  0.71412169D-02 -0.11521129D-01 -0.87797536D-03
 -0.64707495D-02  0.98145388D-02  0.78267902D-03  0.20718947D-03  0.93043986D-05
  0.00000000D+00  0.00000000D+00 -0.13188968D-04 -0.00000000D+00 -0.00000000D+00
  0.62010638D-04  0.00000000D+00  0.00000000D+00  0.22697242D-03 -0.00000000D+00
 -0.00000000D+00 -0.58708584D-07 -0.64595441D-08 -0.64595441D-08 -0.00000000D+00
 -0.00000000D+00  0.00000000D+00 -0.43150194D-07 -0.11482152D-06 -0.11482152D-06
 -0.00000000D+00  0.00000000D+00 -0.00000000D+00
MO   14     MO 0.0        OCC NO =    0.0000000  ORB. ENERGY =    0.026909
  0.00000000D+00 -0.00000000D+00  0.00000000D+00 -0.00000000D+00  0.00000000D+00
  0.00000000D+00  0.00000000D+00 -0.00000000D+00 -0.00000000D+00  0.00000000D+00
 -0.00000000D+00 -0.12893449D-04 -0.24322986D-04 -0.00000000D+00  0.14685006D-04
  0.27702690D-04  0.00000000D+00 -0.14923417D-03 -0.28152442D-03 -0.00000000D+00
  0.35030180D-03  0.66083063D-03 -0.00000000D+00 -0.00000000D+00 -0.00000000D+00
 -0.65904873D-07 -0.12432696D-06  0.00000000D+00 -0.00000000D+00 -0.00000000D+00
 -0.00000000D+00  0.17912047D-07  0.33790393D-07 -0.00000000D+00 -0.00000000D+00
  0.00000000D+00 -0.00000000D+00  0.00000000D+00 -0.00000000D+00  0.00000000D+00
 -0.00000000D+00  0.00000000D+00  0.00000000D+00 -0.00000000D+00  0.00000000D+00
  0.12893449D-04  0.24322986D-04 -0.00000000D+00 -0.14685006D-04 -0.27702690D-04
  0.00000000D+00  0.14923417D-03  0.28152442D-03 -0.00000000D+00 -0.35030180D-03
 -0.66083063D-03 -0.00000000D+00  0.00000000D+00  0.00000000D+00 -0.65904873D-07
 -0.12432696D-06 -0.00000000D+00  0.00000000D+00  0.00000000D+00  0.00000000D+00
  0.17912047D-07  0.33790393D-07  0.00000000D+00
MO   15     MO 0.0        OCC NO =    0.0000000  ORB. ENERGY =    0.026909
 -0.00000000D+00  0.00000000D+00 -0.00000000D+00  0.00000000D+00 -0.00000000D+00
 -0.00000000D+00 -0.00000000D+00  0.00000000D+00  0.00000000D+00 -0.00000000D+00
 -0.00000000D+00 -0.24322986D-04  0.12893449D-04  0.00000000D+00  0.27702690D-04
 -0.14685006D-04 -0.00000000D+00 -0.28152442D-03  0.14923417D-03  0.00000000D+00
  0.66083063D-03 -0.35030180D-03 -0.00000000D+00  0.00000000D+00  0.00000000D+00
 -0.12432696D-06  0.65904873D-07  0.00000000D+00  0.00000000D+00  0.00000000D+00
 -0.00000000D+00  0.33790393D-07 -0.17912047D-07 -0.00000000D+00  0.00000000D+00
 -0.00000000D+00 -0.00000000D+00 -0.00000000D+00  0.00000000D+00 -0.00000000D+00
  0.00000000D+00 -0.00000000D+00 -0.00000000D+00  0.00000000D+00  0.00000000D+00
  0.24322986D-04 -0.12893449D-04  0.00000000D+00 -0.27702690D-04  0.14685006D-04
 -0.00000000D+00  0.28152442D-03 -0.14923417D-03 -0.00000000D+00 -0.66083063D-03
  0.35030180D-03 -0.00000000D+00 -0.00000000D+00 -0.00000000D+00 -0.12432696D-06
  0.65904873D-07 -0.00000000D+00 -0.00000000D+00 -0.00000000D+00 -0.00000000D+00
  0.33790393D-07 -0.17912047D-07 -0.00000000D+00
MO   16     MO 0.0        OCC NO =    0.0000000  ORB. ENERGY =    0.027508
 -0.16404826D-04  0.37479305D-02 -0.33458683D-02  0.12282082D-01 -0.14878370D-01
 -0.15591037D-03 -0.75156440D-02  0.10952248D-01  0.67487504D-03  0.29634703D-03
 -0.52921232D-08  0.00000000D+00  0.00000000D+00  0.80187836D-04 -0.00000000D+00
 -0.00000000D+00 -0.15753521D-03  0.00000000D+00 -0.00000000D+00 -0.23499773D-03
 -0.00000000D+00  0.00000000D+00  0.22114059D-08 -0.17158531D-08 -0.17158531D-08
  0.00000000D+00  0.00000000D+00 -0.00000000D+00  0.47554040D-06  0.72772853D-07
  0.72772853D-07 -0.00000000D+00 -0.00000000D+00  0.00000000D+00  0.16404826D-04
 -0.37479305D-02  0.33458683D-02 -0.12282082D-01  0.14878370D-01  0.15591037D-03
  0.75156440D-02 -0.10952248D-01 -0.67487504D-03 -0.29634703D-03 -0.52921232D-08
 -0.00000000D+00 -0.00000000D+00  0.80187836D-04  0.00000000D+00  0.00000000D+00
 -0.15753521D-03 -0.00000000D+00  0.00000000D+00 -0.23499773D-03  0.00000000D+00
 -0.00000000D+00 -0.22114059D-08  0.17158531D-08  0.17158531D-08  0.00000000D+00
  0.00000000D+00  0.00000000D+00 -0.47554040D-06 -0.72772853D-07 -0.72772853D-07
 -0.00000000D+00 -0.00000000D+00 -0.00000000D+00
MO   17     MO 0.0        OCC NO =    0.0000000  ORB. ENERGY =    0.031332
 -0.39311432D-02 -0.36166906D-02  0.15541051D-01 -0.13797914D-01  0.84840798D-02
  0.13282400D-02  0.28972777D-02 -0.49506281D-02 -0.68124488D-03 -0.13418639D-04
  0.46475685D-04  0.00000000D+00  0.00000000D+00 -0.86216452D-04 -0.00000000D+00
  0.00000000D+00  0.19115455D-03  0.00000000D+00 -0.00000000D+00 -0.47635210D-03
  0.00000000D+00  0.00000000D+00  0.36266751D-06  0.90178068D-07  0.90178068D-07
  0.00000000D+00  0.00000000D+00  0.00000000D+00  0.95104783D-06  0.18425255D-05
  0.18425255D-05 -0.00000000D+00  0.00000000D+00 -0.00000000D+00 -0.39311432D-02
 -0.36166906D-02  0.15541051D-01 -0.13797914D-01  0.84840798D-02  0.13282400D-02
  0.28972777D-02 -0.49506281D-02 -0.68124488D-03 -0.13418639D-04 -0.46475685D-04
 -0.00000000D+00 -0.00000000D+00  0.86216452D-04  0.00000000D+00 -0.00000000D+00
 -0.19115455D-03 -0.00000000D+00  0.00000000D+00  0.47635210D-03 -0.00000000D+00
 -0.00000000D+00  0.36266751D-06  0.90178068D-07  0.90178068D-07  0.00000000D+00
  0.00000000D+00 -0.00000000D+00  0.95104783D-06  0.18425255D-05  0.18425255D-05
 -0.00000000D+00  0.00000000D+00  0.00000000D+00
MO   18     MO 0.0        OCC NO =    0.0000000  ORB. ENERGY =    0.033212
  0.54314828D-03  0.16978833D-02 -0.89513940D-02  0.15825564D-01 -0.13908713D-01
  0.20698945D-03 -0.56461255D-02  0.80489397D-02  0.42846743D-03  0.24212768D-03
  0.66776893D-05  0.00000000D+00  0.00000000D+00 -0.29274431D-05 -0.00000000D+00
 -0.00000000D+00  0.16641808D-03  0.00000000D+00  0.00000000D+00 -0.50849075D-03
 -0.00000000D+00 -0.00000000D+00  0.10114969D-07 -0.24681970D-07 -0.24681970D-07
  0.00000000D+00  0.00000000D+00  0.00000000D+00 -0.44875928D-06 -0.57514573D-06
 -0.57514573D-06 -0.00000000D+00 -0.00000000D+00 -0.00000000D+00  0.54314828D-03
  0.16978833D-02 -0.89513940D-02  0.15825564D-01 -0.13908713D-01  0.20698945D-03
 -0.56461255D-02  0.80489397D-02  0.42846743D-03  0.24212768D-03 -0.66776893D-05
 -0.00000000D+00 -0.00000000D+00  0.29274431D-05  0.00000000D+00  0.00000000D+00
 -0.16641808D-03 -0.00000000D+00 -0.00000000D+00  0.50849075D-03  0.00000000D+00
  0.00000000D+00  0.10114969D-07 -0.24681970D-07 -0.24681970D-07  0.00000000D+00
  0.00000000D+00 -0.00000000D+00 -0.44875928D-06 -0.57514573D-06 -0.57514573D-06
 -0.00000000D+00 -0.00000000D+00  0.00000000D+00
MO   19     MO 0.0        OCC NO =    0.0000000  ORB. ENERGY =    0.033906
 -0.54040800D-04  0.13270637D-01  0.18185631D-02 -0.82566487D-02  0.87314623D-02
 -0.10651275D-02  0.37163162D-02 -0.47919564D-02 -0.19483586D-05 -0.22590214D-03
  0.53280008D-07  0.00000000D+00 -0.00000000D+00  0.29006704D-03 -0.00000000D+00
 -0.00000000D+00 -0.35780159D-03  0.00000000D+00 -0.00000000D+00  0.58125861D-03
 -0.00000000D+00  0.00000000D+00 -0.92908226D-09 -0.35498604D-08 -0.35498604D-08
  0.00000000D+00 -0.00000000D+00 -0.00000000D+00  0.18308099D-05  0.23188820D-06
  0.23188820D-06 -0.00000000D+00 -0.00000000D+00  0.00000000D+00  0.54040800D-04
 -0.13270637D-01 -0.18185631D-02  0.82566487D-02 -0.87314623D-02  0.10651275D-02
 -0.37163162D-02  0.47919564D-02  0.19483586D-05  0.22590214D-03  0.53280008D-07
 -0.00000000D+00  0.00000000D+00  0.29006704D-03  0.00000000D+00  0.00000000D+00
 -0.35780159D-03 -0.00000000D+00  0.00000000D+00  0.58125861D-03  0.00000000D+00
  0.00000000D+00  0.92908226D-09  0.35498604D-08  0.35498604D-08  0.00000000D+00
 -0.00000000D+00  0.00000000D+00 -0.18308099D-05 -0.23188820D-06 -0.23188820D-06
 -0.00000000D+00 -0.00000000D+00 -0.00000000D+00
MO   20     MO 0.0        OCC NO =    0.0000000  ORB. ENERGY =    0.039621
  0.83548222D-03  0.42526332D-02 -0.15439484D-01  0.11848233D-01 -0.59387982D-02
 -0.24337808D-02 -0.15618918D-02  0.34934695D-02  0.80542546D-03 -0.92082894D-04
 -0.50722606D-04  0.00000000D+00  0.00000000D+00  0.92119197D-04 -0.00000000D+00
 -0.00000000D+00  0.68111958D-04  0.00000000D+00  0.00000000D+00 -0.71788109D-04
 -0.00000000D+00 -0.00000000D+00 -0.63085513D-06 -0.55376412D-06 -0.55376412D-06
  0.00000000D+00  0.00000000D+00  0.00000000D+00 -0.31905071D-05 -0.35885061D-05
 -0.35885061D-05 -0.00000000D+00 -0.00000000D+00 -0.00000000D+00 -0.83548222D-03
 -0.42526332D-02  0.15439484D-01 -0.11848233D-01  0.59387982D-02  0.24337808D-02
  0.15618918D-02 -0.34934695D-02 -0.80542546D-03  0.92082894D-04 -0.50722606D-04
 -0.00000000D+00 -0.00000000D+00  0.92119197D-04  0.00000000D+00  0.00000000D+00
  0.68111958D-04 -0.00000000D+00 -0.00000000D+00 -0.71788109D-04  0.00000000D+00
  0.00000000D+00  0.63085513D-06  0.55376412D-06  0.55376412D-06  0.00000000D+00
  0.00000000D+00 -0.00000000D+00  0.31905071D-05  0.35885061D-05  0.35885061D-05
 -0.00000000D+00 -0.00000000D+00  0.00000000D+00
MO   21     MO 0.0        OCC NO =    0.0000000  ORB. ENERGY =    0.042611
 -0.71632281D-02  0.32312149D-02  0.18798414D-02  0.37019525D-03 -0.30684194D-04
 -0.11587333D-02  0.12335043D-03  0.40372338D-03  0.30000046D-03 -0.76674554D-04
  0.88185079D-04  0.00000000D+00  0.00000000D+00 -0.34802666D-04 -0.00000000D+00
  0.00000000D+00  0.37471179D-04  0.00000000D+00  0.00000000D+00 -0.21293539D-04
 -0.00000000D+00 -0.00000000D+00  0.77026402D-06  0.19948615D-06  0.19948615D-06
  0.00000000D+00  0.00000000D+00 -0.00000000D+00  0.97852731D-06  0.14976370D-05
  0.14976370D-05 -0.00000000D+00  0.00000000D+00  0.00000000D+00 -0.71632281D-02
  0.32312149D-02  0.18798414D-02  0.37019525D-03 -0.30684194D-04 -0.11587333D-02
  0.12335043D-03  0.40372338D-03  0.30000046D-03 -0.76674554D-04 -0.88185079D-04
 -0.00000000D+00 -0.00000000D+00  0.34802666D-04  0.00000000D+00 -0.00000000D+00
 -0.37471179D-04 -0.00000000D+00  0.00000000D+00  0.21293539D-04  0.00000000D+00
 -0.00000000D+00  0.77026402D-06  0.19948615D-06  0.19948615D-06  0.00000000D+00
  0.00000000D+00 -0.00000000D+00  0.97852731D-06  0.14976370D-05  0.14976370D-05
 -0.00000000D+00  0.00000000D+00  0.00000000D+00
MO   22     MO 0.0        OCC NO =    0.0000000  ORB. ENERGY =    0.042865
 -0.00000000D+00  0.00000000D+00 -0.00000000D+00  0.00000000D+00 -0.00000000D+00
 -0.00000000D+00  0.00000000D+00  0.00000000D+00  0.00000000D+00 -0.00000000D+00
  0.00000000D+00 -0.00000000D+00 -0.00000000D+00  0.00000000D+00  0.00000000D+00
  0.00000000D+00 -0.00000000D+00  0.00000000D+00 -0.00000000D+00 -0.00000000D+00
 -0.00000000D+00  0.00000000D+00  0.00000000D+00 -0.53937821D-07  0.53937821D-07
 -0.00000000D+00 -0.00000000D+00  0.73788450D-08  0.00000000D+00  0.68700443D-06
 -0.68700443D-06  0.00000000D+00  0.00000000D+00 -0.93984115D-07 -0.00000000D+00
 -0.00000000D+00  0.00000000D+00 -0.00000000D+00  0.00000000D+00  0.00000000D+00
 -0.00000000D+00 -0.00000000D+00 -0.00000000D+00  0.00000000D+00 -0.00000000D+00
  0.00000000D+00  0.00000000D+00  0.00000000D+00 -0.00000000D+00  0.00000000D+00
 -0.00000000D+00  0.00000000D+00 -0.00000000D+00 -0.00000000D+00 -0.00000000D+00
  0.00000000D+00  0.00000000D+00 -0.53937821D-07  0.53937821D-07 -0.00000000D+00
  0.00000000D+00  0.73788450D-08 -0.00000000D+00  0.68700443D-06 -0.68700443D-06
  0.00000000D+00 -0.00000000D+00 -0.93984115D-07
MO   23     MO 0.0        OCC NO =    0.0000000  ORB. ENERGY =    0.042865
  0.00000000D+00 -0.00000000D+00  0.00000000D+00 -0.00000000D+00  0.00000000D+00
  0.00000000D+00  0.00000000D+00 -0.00000000D+00 -0.00000000D+00  0.00000000D+00
 -0.00000000D+00  0.00000000D+00  0.00000000D+00 -0.00000000D+00 -0.00000000D+00
 -0.00000000D+00 -0.00000000D+00  0.00000000D+00  0.00000000D+00  0.00000000D+00
  0.00000000D+00 -0.00000000D+00 -0.00000000D+00 -0.36894215D-08  0.36894215D-08
  0.00000000D+00  0.00000000D+00 -0.10787564D-06 -0.00000000D+00  0.46992061D-07
 -0.46992061D-07 -0.00000000D+00 -0.00000000D+00  0.13740088D-05  0.00000000D+00
  0.00000000D+00 -0.00000000D+00  0.00000000D+00 -0.00000000D+00 -0.00000000D+00
 -0.00000000D+00  0.00000000D+00  0.00000000D+00 -0.00000000D+00  0.00000000D+00
 -0.00000000D+00 -0.00000000D+00 -0.00000000D+00  0.00000000D+00  0.00000000D+00
  0.00000000D+00 -0.00000000D+00 -0.00000000D+00  0.00000000D+00  0.00000000D+00
  0.00000000D+00 -0.00000000D+00 -0.36894215D-08  0.36894215D-08  0.00000000D+00
  0.00000000D+00 -0.10787564D-06  0.00000000D+00  0.46992061D-07 -0.46992061D-07
 -0.00000000D+00 -0.00000000D+00  0.13740088D-05
MO   24     MO 0.0        OCC NO =    0.0000000  ORB. ENERGY =    0.043108
 -0.30373087D-03  0.46275063D-01 -0.14151595D-01  0.12551000D-01 -0.42372117D-02
 -0.73988970D-02 -0.31392800D-03  0.41366899D-02  0.19864061D-02 -0.43740263D-03
  0.64957971D-05  0.00000000D+00  0.00000000D+00  0.73998079D-03 -0.00000000D+00
 -0.00000000D+00  0.48129370D-04  0.00000000D+00  0.00000000D+00 -0.85163313D-04
 -0.00000000D+00  0.00000000D+00  0.15295665D-06  0.20384808D-06  0.20384808D-06
  0.00000000D+00  0.00000000D+00 -0.00000000D+00  0.36200077D-05 -0.99076295D-06
 -0.99076295D-06 -0.00000000D+00 -0.00000000D+00  0.00000000D+00  0.30373087D-03
 -0.46275063D-01  0.14151595D-01 -0.12551000D-01  0.42372117D-02  0.73988970D-02
  0.31392800D-03 -0.41366899D-02 -0.19864061D-02  0.43740263D-03  0.64957971D-05
 -0.00000000D+00 -0.00000000D+00  0.73998079D-03  0.00000000D+00  0.00000000D+00