 Molden2AIM, Version 3.1.0 (02/25/2015)           Time: Thu Oct 17 19:56:18 2024
GAUSSIAN             68 MOL ORBITALS     68 PRIMITIVES        2 NUCLEI
  Be   1    (CENTRE  1)   0.00000000  0.00000000  0.00000000  CHARGE =  4.0
  Be   2    (CENTRE  2)  57.60000000  0.00000000  0.00000000  CHARGE =  4.0
CENTRE ASSIGNMENTS    1  1  1  1  1  1  1  1  1  1  1  1  1  1  1  1  1  1  1  1
CENTRE ASSIGNMENTS    1  1  1  1  1  1  1  1  1  1  1  1  1  1  2  2  2  2  2  2
CENTRE ASSIGNMENTS    2  2  2  2  2  2  2  2  2  2  2  2  2  2  2  2  2  2  2  2
CENTRE ASSIGNMENTS    2  2  2  2  2  2  2  2
TYPE ASSIGNMENTS      1  1  1  1  1  1  1  1  1  1  2  3  4  2  3  4  2  3  4  2
TYPE ASSIGNMENTS      3  4  5  6  7  8  9 10  5  6  7  8  9 10  1  1  1  1  1  1
TYPE ASSIGNMENTS      1  1  1  1  2  3  4  2  3  4  2  3  4  2  3  4  5  6  7  8
TYPE ASSIGNMENTS      9 10  5  6  7  8  9 10
EXPONENTS  0.1000000D-03 0.3000000D-03 0.9000000D-03 0.2700000D-02 0.8100000D-02
EXPONENTS  0.2430000D-01 0.7290000D-01 0.2187000D+00 0.6561000D+00 0.1968300D+01
EXPONENTS  0.1000000D-03 0.1000000D-03 0.1000000D-03 0.3000000D-03 0.3000000D-03
EXPONENTS  0.3000000D-03 0.9000000D-03 0.9000000D-03 0.9000000D-03 0.2700000D-02
EXPONENTS  0.2700000D-02 0.2700000D-02 0.1000000D-03 0.1000000D-03 0.1000000D-03
EXPONENTS  0.1000000D-03 0.1000000D-03 0.1000000D-03 0.3000000D-03 0.3000000D-03
EXPONENTS  0.3000000D-03 0.3000000D-03 0.3000000D-03 0.3000000D-03 0.1000000D-03
EXPONENTS  0.3000000D-03 0.9000000D-03 0.2700000D-02 0.8100000D-02 0.2430000D-01
EXPONENTS  0.7290000D-01 0.2187000D+00 0.6561000D+00 0.1968300D+01 0.1000000D-03
EXPONENTS  0.1000000D-03 0.1000000D-03 0.3000000D-03 0.3000000D-03 0.3000000D-03
EXPONENTS  0.9000000D-03 0.9000000D-03 0.9000000D-03 0.2700000D-02 0.2700000D-02
EXPONENTS  0.2700000D-02 0.1000000D-03 0.1000000D-03 0.1000000D-03 0.1000000D-03
EXPONENTS  0.1000000D-03 0.1000000D-03 0.3000000D-03 0.3000000D-03 0.3000000D-03
EXPONENTS  0.3000000D-03 0.3000000D-03 0.3000000D-03
MO    1     MO 0.0        OCC NO =    1.0000000  ORB. ENERGY =    0.004309
 -0.30951819D-03 -0.34398958D-03  0.25314114D-02 -0.10108248D-02  0.26500234D-02
  0.31337959D-02  0.58014137D-02 -0.10180777D-01 -0.13629210D-02 -0.20086506D-04
  0.63883171D-05  0.00000000D+00 -0.00000000D+00 -0.96368693D-05  0.00000000D+00
 -0.00000000D+00  0.69926317D-04 -0.00000000D+00  0.00000000D+00  0.10490547D-03
  0.00000000D+00 -0.00000000D+00  0.40308680D-07  0.43518165D-08  0.43518165D-08
  0.00000000D+00  0.00000000D+00 -0.00000000D+00  0.81033856D-07  0.10120010D-06
  0.10120010D-06  0.00000000D+00 -0.00000000D+00 -0.00000000D+00 -0.30951819D-03
 -0.34398958D-03  0.25314114D-02 -0.10108248D-02  0.26500234D-02  0.31337959D-02
  0.58014137D-02 -0.10180777D-01 -0.13629210D-02 -0.20086506D-04 -0.63883171D-05
 -0.00000000D+00  0.00000000D+00  0.96368693D-05 -0.00000000D+00  0.00000000D+00
 -0.69926317D-04  0.00000000D+00 -0.00000000D+00 -0.10490547D-03 -0.00000000D+00
  0.00000000D+00  0.40308680D-07  0.43518165D-08  0.43518165D-08  0.00000000D+00
 -0.00000000D+00 -0.00000000D+00  0.81033856D-07  0.10120010D-06  0.10120010D-06
  0.00000000D+00 -0.00000000D+00  0.00000000D+00
MO    2     MO 0.0        OCC NO =    0.0000000  ORB. ENERGY =    0.006064
 -0.14141096D-04  0.12771299D-02  0.18843672D-03  0.35912682D-02  0.18013105D-02
  0.83636898D-02  0.89952802D-02 -0.17716561D-01 -0.32108482D-02  0.23792325D-03
  0.54831012D-06  0.00000000D+00 -0.00000000D+00  0.30652874D-04 -0.00000000D+00
  0.00000000D+00 -0.28463697D-04  0.00000000D+00 -0.00000000D+00  0.27919304D-03
 -0.00000000D+00  0.00000000D+00  0.49863412D-08  0.39535625D-08  0.39535625D-08
  0.00000000D+00 -0.00000000D+00  0.00000000D+00  0.25184827D-06  0.72994680D-07
  0.72994680D-07 -0.00000000D+00  0.00000000D+00 -0.00000000D+00  0.14141096D-04
 -0.12771299D-02 -0.18843672D-03 -0.35912682D-02 -0.18013105D-02 -0.83636898D-02
 -0.89952802D-02  0.17716561D-01  0.32108482D-02 -0.23792325D-03  0.54831012D-06
 -0.00000000D+00  0.00000000D+00  0.30652874D-04  0.00000000D+00 -0.00000000D+00
 -0.28463697D-04  0.00000000D+00 -0.00000000D+00  0.27919304D-03 -0.00000000D+00
  0.00000000D+00 -0.49863412D-08 -0.39535625D-08 -0.39535625D-08  0.00000000D+00
 -0.00000000D+00 -0.00000000D+00 -0.25184827D-06 -0.72994680D-07 -0.72994680D-07
 -0.00000000D+00  0.00000000D+00 -0.00000000D+00
MO    3     MO 0.0        OCC NO =    0.0000000  ORB. ENERGY =    0.008121
 -0.30126392D-03 -0.14220063D-03  0.26611584D-02 -0.64491328D-02 -0.11278589D-02
 -0.94724047D-02 -0.85131023D-02  0.17601273D-01  0.35199773D-02 -0.34157720D-03
  0.89374579D-05 -0.00000000D+00  0.00000000D+00 -0.13930664D-04  0.00000000D+00
  0.00000000D+00  0.11471324D-03 -0.00000000D+00 -0.00000000D+00 -0.26978219D-03
  0.00000000D+00  0.00000000D+00  0.52577688D-07  0.16216536D-08  0.16216536D-08
 -0.00000000D+00  0.00000000D+00  0.00000000D+00 -0.50396734D-08  0.36606098D-07
  0.36606098D-07  0.00000000D+00  0.00000000D+00 -0.00000000D+00 -0.30126392D-03
 -0.14220063D-03  0.26611584D-02 -0.64491328D-02 -0.11278589D-02 -0.94724047D-02
 -0.85131023D-02  0.17601273D-01  0.35199773D-02 -0.34157720D-03 -0.89374579D-05
  0.00000000D+00 -0.00000000D+00  0.13930664D-04 -0.00000000D+00  0.00000000D+00
 -0.11471324D-03  0.00000000D+00 -0.00000000D+00  0.26978219D-03 -0.00000000D+00
  0.00000000D+00  0.52577688D-07  0.16216536D-08  0.16216536D-08 -0.00000000D+00
  0.00000000D+00  0.00000000D+00 -0.50396734D-08  0.36606098D-07  0.36606098D-07
  0.00000000D+00 -0.00000000D+00 -0.00000000D+00
MO    4     MO 0.0        OCC NO =    0.0000000  ORB. ENERGY =    0.014485
 -0.12998693D-04 -0.42156025D-02  0.33641459D-02  0.10375606D-02 -0.10802675D-01
 -0.41889345D-02 -0.11197587D-01  0.18534413D-01  0.21042169D-02  0.17244076D-03
  0.16844078D-05 -0.00000000D+00  0.00000000D+00 -0.82284645D-04  0.00000000D+00
 -0.00000000D+00  0.66904317D-04 -0.00000000D+00  0.00000000D+00  0.31454568D-03
  0.00000000D+00 -0.00000000D+00  0.16318205D-07  0.12733257D-07  0.12733257D-07
 -0.00000000D+00  0.00000000D+00 -0.00000000D+00 -0.32800257D-06  0.15366054D-06
  0.15366054D-06  0.00000000D+00 -0.00000000D+00  0.00000000D+00  0.12998693D-04
  0.42156025D-02 -0.33641459D-02 -0.10375606D-02  0.10802675D-01  0.41889345D-02
  0.11197587D-01 -0.18534413D-01 -0.21042169D-02 -0.17244076D-03  0.16844078D-05
  0.00000000D+00 -0.00000000D+00 -0.82284645D-04 -0.00000000D+00  0.00000000D+00
  0.66904317D-04  0.00000000D+00 -0.00000000D+00  0.31454568D-03 -0.00000000D+00
  0.00000000D+00 -0.16318205D-07 -0.12733257D-07 -0.12733257D-07 -0.00000000D+00
  0.00000000D+00  0.00000000D+00  0.32800257D-06 -0.15366054D-06 -0.15366054D-06
  0.00000000D+00 -0.00000000D+00 -0.00000000D+00
MO    5     MO 0.0        OCC NO =    0.0000000  ORB. ENERGY =    0.016748
  0.00000000D+00  0.00000000D+00  0.00000000D+00  0.00000000D+00 -0.00000000D+00
 -0.00000000D+00 -0.00000000D+00  0.00000000D+00  0.00000000D+00 -0.00000000D+00
 -0.00000000D+00 -0.36042770D-06 -0.88267589D-06  0.00000000D+00  0.35596357D-05
  0.87174330D-05 -0.00000000D+00 -0.51687643D-04 -0.12658137D-03  0.00000000D+00
 -0.41542161D-04 -0.10173542D-03 -0.00000000D+00  0.00000000D+00  0.00000000D+00
  0.90593988D-08  0.22186176D-07 -0.00000000D+00  0.00000000D+00  0.00000000D+00
  0.00000000D+00 -0.97468139D-07 -0.23869635D-06  0.00000000D+00  0.00000000D+00
 -0.00000000D+00 -0.00000000D+00  0.00000000D+00 -0.00000000D+00  0.00000000D+00
 -0.00000000D+00  0.00000000D+00 -0.00000000D+00  0.00000000D+00  0.00000000D+00
 -0.36042770D-06 -0.88267589D-06  0.00000000D+00  0.35596357D-05  0.87174330D-05
 -0.00000000D+00 -0.51687643D-04 -0.12658137D-03 -0.00000000D+00 -0.41542161D-04
 -0.10173542D-03 -0.00000000D+00 -0.00000000D+00 -0.00000000D+00 -0.90593988D-08
 -0.22186176D-07  0.00000000D+00 -0.00000000D+00 -0.00000000D+00 -0.00000000D+00
  0.97468139D-07  0.23869635D-06 -0.00000000D+00
MO    6     MO 0.0        OCC NO =    0.0000000  ORB. ENERGY =    0.016748
 -0.00000000D+00  0.00000000D+00 -0.00000000D+00  0.00000000D+00 -0.00000000D+00
  0.00000000D+00 -0.00000000D+00  0.00000000D+00  0.00000000D+00  0.00000000D+00
  0.00000000D+00 -0.88267589D-06  0.36042770D-06  0.00000000D+00  0.87174330D-05
 -0.35596357D-05 -0.00000000D+00 -0.12658137D-03  0.51687643D-04  0.00000000D+00
 -0.10173542D-03  0.41542161D-04  0.00000000D+00  0.00000000D+00  0.00000000D+00
  0.22186176D-07 -0.90593988D-08 -0.00000000D+00  0.00000000D+00  0.00000000D+00
  0.00000000D+00 -0.23869635D-06  0.97468139D-07  0.00000000D+00 -0.00000000D+00
 -0.00000000D+00  0.00000000D+00  0.00000000D+00 -0.00000000D+00 -0.00000000D+00
 -0.00000000D+00  0.00000000D+00 -0.00000000D+00 -0.00000000D+00  0.00000000D+00
 -0.88267589D-06  0.36042770D-06  0.00000000D+00  0.87174330D-05 -0.35596357D-05
 -0.00000000D+00 -0.12658137D-03  0.51687643D-04 -0.00000000D+00 -0.10173542D-03
  0.41542161D-04  0.00000000D+00 -0.00000000D+00 -0.00000000D+00 -0.22186176D-07
  0.90593988D-08  0.00000000D+00 -0.00000000D+00  0.00000000D+00  0.00000000D+00
  0.23869635D-06 -0.97468139D-07 -0.00000000D+00
MO    7     MO 0.0        OCC NO =    0.0000000  ORB. ENERGY =    0.017062
 -0.45609024D-03 -0.74508664D-03  0.49097655D-03  0.90182296D-02 -0.15995724D-01
 -0.15357106D-03 -0.11807604D-01  0.17231053D-01  0.95935098D-03  0.48760705D-03
 -0.25858420D-05 -0.00000000D+00 -0.00000000D+00 -0.10733414D-06  0.00000000D+00
 -0.00000000D+00 -0.10585240D-03  0.00000000D+00  0.00000000D+00  0.67337300D-03
  0.00000000D+00  0.00000000D+00  0.45795382D-08  0.17562310D-07  0.17562310D-07
 -0.00000000D+00 -0.00000000D+00  0.00000000D+00  0.27107460D-06  0.38255966D-06
  0.38255966D-06  0.00000000D+00 -0.00000000D+00 -0.00000000D+00 -0.45609024D-03
 -0.74508664D-03  0.49097655D-03  0.90182296D-02 -0.15995724D-01 -0.15357106D-03
 -0.11807604D-01  0.17231053D-01  0.95935098D-03  0.48760705D-03  0.25858420D-05
  0.00000000D+00  0.00000000D+00  0.10733414D-06 -0.00000000D+00  0.00000000D+00
  0.10585240D-03  0.00000000D+00  0.00000000D+00 -0.67337300D-03 -0.00000000D+00
 -0.00000000D+00  0.45795382D-08  0.17562310D-07  0.17562310D-07 -0.00000000D+00
 -0.00000000D+00 -0.00000000D+00  0.27107460D-06  0.38255966D-06  0.38255966D-06
  0.00000000D+00 -0.00000000D+00  0.00000000D+00
MO    8     MO 0.0        OCC NO =    0.0000000  ORB. ENERGY =    0.019449
  0.00000000D+00 -0.00000000D+00  0.00000000D+00 -0.00000000D+00  0.00000000D+00
 -0.00000000D+00  0.00000000D+00 -0.00000000D+00  0.00000000D+00 -0.00000000D+00
 -0.00000000D+00 -0.22203003D-05 -0.42398293D-06 -0.00000000D+00  0.47093362D-06
  0.89928363D-07  0.00000000D+00 -0.29057394D-04 -0.55487256D-05 -0.00000000D+00
 -0.54495120D-03 -0.10406248D-03 -0.00000000D+00 -0.00000000D+00 -0.00000000D+00
 -0.94541778D-08 -0.18053457D-08  0.00000000D+00 -0.00000000D+00 -0.00000000D+00
 -0.00000000D+00 -0.75873234D-07 -0.14488557D-07 -0.00000000D+00  0.00000000D+00
  0.00000000D+00 -0.00000000D+00  0.00000000D+00 -0.00000000D+00  0.00000000D+00
 -0.00000000D+00  0.00000000D+00  0.00000000D+00 -0.00000000D+00  0.00000000D+00
  0.22203003D-05  0.42398293D-06 -0.00000000D+00 -0.47093362D-06 -0.89928363D-07
  0.00000000D+00  0.29057394D-04  0.55487256D-05 -0.00000000D+00  0.54495120D-03
  0.10406248D-03 -0.00000000D+00  0.00000000D+00  0.00000000D+00 -0.94541778D-08
 -0.18053457D-08 -0.00000000D+00  0.00000000D+00  0.00000000D+00  0.00000000D+00
 -0.75873234D-07 -0.14488557D-07  0.00000000D+00
MO    9     MO 0.0        OCC NO =    0.0000000  ORB. ENERGY =    0.019449
  0.00000000D+00  0.00000000D+00 -0.00000000D+00  0.00000000D+00 -0.00000000D+00
  0.00000000D+00 -0.00000000D+00  0.00000000D+00  0.00000000D+00 -0.00000000D+00
 -0.00000000D+00  0.42398293D-06 -0.22203003D-05  0.00000000D+00 -0.89928363D-07
  0.47093362D-06 -0.00000000D+00  0.55487256D-05 -0.29057394D-04  0.00000000D+00
  0.10406248D-03 -0.54495120D-03 -0.00000000D+00  0.00000000D+00  0.00000000D+00
  0.18053457D-08 -0.94541778D-08  0.00000000D+00  0.00000000D+00  0.00000000D+00
  0.00000000D+00  0.14488557D-07 -0.75873234D-07 -0.00000000D+00  0.00000000D+00
 -0.00000000D+00  0.00000000D+00 -0.00000000D+00  0.00000000D+00 -0.00000000D+00
  0.00000000D+00 -0.00000000D+00  0.00000000D+00 -0.00000000D+00  0.00000000D+00
 -0.42398293D-06  0.22203003D-05  0.00000000D+00  0.89928363D-07 -0.47093362D-06
 -0.00000000D+00 -0.55487256D-05  0.29057394D-04  0.00000000D+00 -0.10406248D-03
  0.54495120D-03 -0.00000000D+00 -0.00000000D+00 -0.00000000D+00  0.18053457D-08
 -0.94541778D-08 -0.00000000D+00 -0.00000000D+00 -0.00000000D+00 -0.00000000D+00
  0.14488557D-07 -0.75873234D-07 -0.00000000D+00
MO   10     MO 0.0        OCC NO =    0.0000000  ORB. ENERGY =    0.020879
  0.36864576D-04 -0.12803774D-01  0.87303982D-02 -0.14964702D-01  0.13369665D-01
 -0.31599722D-02  0.69272000D-02 -0.84054798D-02  0.34546736D-03 -0.50335885D-03
  0.73869256D-06  0.00000000D+00 -0.00000000D+00 -0.27433659D-03 -0.00000000D+00
  0.00000000D+00  0.33938443D-03  0.00000000D+00  0.00000000D+00 -0.62892078D-03
  0.00000000D+00 -0.00000000D+00  0.53508324D-08  0.76612192D-08  0.76612192D-08
  0.00000000D+00 -0.00000000D+00 -0.00000000D+00 -0.16045512D-05 -0.56044271D-07
 -0.56044271D-07 -0.00000000D+00  0.00000000D+00  0.00000000D+00 -0.36864576D-04
  0.12803774D-01 -0.87303982D-02  0.14964702D-01 -0.13369665D-01  0.31599722D-02
 -0.69272000D-02  0.84054798D-02 -0.34546736D-03  0.50335885D-03  0.73869256D-06
 -0.00000000D+00  0.00000000D+00 -0.27433659D-03  0.00000000D+00 -0.00000000D+00
  0.33938443D-03 -0.00000000D+00  0.00000000D+00 -0.62892078D-03 -0.00000000D+00
 -0.00000000D+00 -0.53508324D-08 -0.76612192D-08 -0.76612192D-08  0.00000000D+00
 -0.00000000D+00  0.00000000D+00  0.16045512D-05  0.56044271D-07  0.56044271D-07
 -0.00000000D+00  0.00000000D+00 -0.00000000D+00
MO   11     MO 0.0        OCC NO =    0.0000000  ORB. ENERGY =    0.022776
 -0.00000000D+00  0.00000000D+00 -0.00000000D+00 -0.00000000D+00  0.00000000D+00
 -0.00000000D+00  0.00000000D+00 -0.00000000D+00 -0.00000000D+00  0.00000000D+00
  0.00000000D+00  0.90803138D-06  0.25856441D-06  0.00000000D+00 -0.93456129D-05
 -0.26611889D-05  0.00000000D+00  0.17149937D-03  0.48834912D-04 -0.00000000D+00
 -0.84292546D-03 -0.24002531D-03  0.00000000D+00 -0.00000000D+00 -0.00000000D+00
 -0.22217592D-07 -0.63265183D-08  0.00000000D+00  0.00000000D+00 -0.00000000D+00
 -0.00000000D+00  0.24003284D-06  0.68349996D-07 -0.00000000D+00 -0.00000000D+00
 -0.00000000D+00  0.00000000D+00 -0.00000000D+00  0.00000000D+00 -0.00000000D+00
  0.00000000D+00 -0.00000000D+00 -0.00000000D+00  0.00000000D+00 -0.00000000D+00
  0.90803138D-06  0.25856441D-06  0.00000000D+00 -0.93456129D-05 -0.26611889D-05
 -0.00000000D+00  0.17149937D-03  0.48834912D-04  0.00000000D+00 -0.84292546D-03
 -0.24002531D-03  0.00000000D+00  0.00000000D+00  0.00000000D+00  0.22217592D-07
  0.63265183D-08 -0.00000000D+00 -0.00000000D+00  0.00000000D+00  0.00000000D+00
 -0.24003284D-06 -0.68349996D-07  0.00000000D+00
MO   12     MO 0.0        OCC NO =    0.0000000  ORB. ENERGY =    0.022776
 -0.00000000D+00  0.00000000D+00  0.00000000D+00 -0.00000000D+00  0.00000000D+00
  0.00000000D+00  0.00000000D+00 -0.00000000D+00 -0.00000000D+00  0.00000000D+00
 -0.00000000D+00  0.25856441D-06 -0.90803138D-06  0.00000000D+00 -0.26611889D-05
  0.93456129D-05 -0.00000000D+00  0.48834912D-04 -0.17149937D-03 -0.00000000D+00
 -0.24002531D-03  0.84292546D-03 -0.00000000D+00  0.00000000D+00  0.00000000D+00
 -0.63265183D-08  0.22217592D-07 -0.00000000D+00  0.00000000D+00  0.00000000D+00
  0.00000000D+00  0.68349996D-07 -0.24003284D-06  0.00000000D+00  0.00000000D+00
 -0.00000000D+00 -0.00000000D+00  0.00000000D+00 -0.00000000D+00  0.00000000D+00
 -0.00000000D+00  0.00000000D+00 -0.00000000D+00  0.00000000D+00  0.00000000D+00
  0.25856441D-06 -0.90803138D-06  0.00000000D+00 -0.26611889D-05  0.93456129D-05
  0.00000000D+00  0.48834912D-04 -0.17149937D-03 -0.00000000D+00 -0.24002531D-03
  0.84292546D-03 -0.00000000D+00 -0.00000000D+00 -0.00000000D+00  0.63265183D-08
 -0.22217592D-07  0.00000000D+00 -0.00000000D+00 -0.00000000D+00 -0.00000000D+00
 -0.68349996D-07  0.24003284D-06 -0.00000000D+00
MO   13     MO 0.0        OCC NO =    0.0000000  ORB. ENERGY =    0.027202
  0.53865389D-03  0.17474575D-03 -0.44660256D-03  0.64554004D-02 -0.10884626D-01
 -0.84580677D-03 -0.62412719D-02  0.94759412D-02  0.75944420D-03  0.19838978D-03
 -0.10603874D-04  0.00000000D+00 -0.00000000D+00  0.16304915D-04 -0.00000000D+00
  0.00000000D+00 -0.75432439D-04  0.00000000D+00 -0.00000000D+00 -0.19320315D-03
 -0.00000000D+00  0.00000000D+00 -0.70239057D-07 -0.80444904D-08 -0.80444904D-08
  0.00000000D+00 -0.00000000D+00 -0.00000000D+00 -0.52089543D-07 -0.14656796D-06
 -0.14656796D-06 -0.00000000D+00  0.00000000D+00  0.00000000D+00  0.53865389D-03
  0.17474575D-03 -0.44660256D-03  0.64554004D-02 -0.10884626D-01 -0.84580677D-03
 -0.62412719D-02  0.94759412D-02  0.75944420D-03  0.19838978D-03  0.10603874D-04
 -0.00000000D+00  0.00000000D+00 -0.16304915D-04  0.00000000D+00 -0.00000000D+00
  0.75432439D-04 -0.00000000D+00  0.00000000D+00  0.19320315D-03  0.00000000D+00
 -0.00000000D+00 -0.70239057D-07 -0.80444904D-08 -0.80444904D-08  0.00000000D+00
 -0.00000000D+00  0.00000000D+00 -0.52089543D-07 -0.14656796D-06 -0.14656796D-06
 -0.00000000D+00  0.00000000D+00  0.00000000D+00
MO   14     MO 0.0        OCC NO =    0.0000000  ORB. ENERGY =    0.027800
 -0.00000000D+00 -0.00000000D+00 -0.00000000D+00  0.00000000D+00 -0.00000000D+00
  0.00000000D+00 -0.00000000D+00  0.00000000D+00 -0.00000000D+00 -0.00000000D+00
 -0.00000000D+00  0.18609181D-04  0.14133683D-04 -0.00000000D+00 -0.22516370D-04
 -0.17101195D-04  0.00000000D+00  0.24847694D-03  0.18871837D-03 -0.00000000D+00
 -0.61141240D-03 -0.46436804D-03 -0.00000000D+00 -0.00000000D+00 -0.00000000D+00
  0.97244408D-07  0.73857180D-07 -0.00000000D+00 -0.00000000D+00 -0.00000000D+00
 -0.00000000D+00 -0.12529892D-08 -0.95164874D-09 -0.00000000D+00  0.00000000D+00
  0.00000000D+00  0.00000000D+00 -0.00000000D+00  0.00000000D+00 -0.00000000D+00
  0.00000000D+00  0.00000000D+00 -0.00000000D+00  0.00000000D+00 -0.00000000D+00
 -0.18609181D-04 -0.14133683D-04 -0.00000000D+00  0.22516370D-04  0.17101195D-04
  0.00000000D+00 -0.24847694D-03 -0.18871837D-03 -0.00000000D+00  0.61141240D-03
  0.46436804D-03  0.00000000D+00  0.00000000D+00  0.00000000D+00  0.97244408D-07
  0.73857180D-07  0.00000000D+00  0.00000000D+00  0.00000000D+00  0.00000000D+00
 -0.12529892D-08 -0.95164874D-09  0.00000000D+00
MO   15     MO 0.0        OCC NO =    0.0000000  ORB. ENERGY =    0.027800
 -0.00000000D+00  0.00000000D+00  0.00000000D+00  0.00000000D+00 -0.00000000D+00
 -0.00000000D+00 -0.00000000D+00  0.00000000D+00  0.00000000D+00 -0.00000000D+00
  0.00000000D+00 -0.14133683D-04  0.18609181D-04  0.00000000D+00  0.17101195D-04
 -0.22516370D-04 -0.00000000D+00 -0.18871837D-03  0.24847694D-03 -0.00000000D+00
  0.46436804D-03 -0.61141240D-03  0.00000000D+00  0.00000000D+00  0.00000000D+00
 -0.73857180D-07  0.97244408D-07  0.00000000D+00  0.00000000D+00  0.00000000D+00
  0.00000000D+00  0.95164874D-09 -0.12529892D-08  0.00000000D+00  0.00000000D+00
 -0.00000000D+00  0.00000000D+00 -0.00000000D+00  0.00000000D+00 -0.00000000D+00
  0.00000000D+00 -0.00000000D+00  0.00000000D+00 -0.00000000D+00  0.00000000D+00
  0.14133683D-04 -0.18609181D-04  0.00000000D+00 -0.17101195D-04  0.22516370D-04
 -0.00000000D+00  0.18871837D-03 -0.24847694D-03 -0.00000000D+00 -0.46436804D-03
  0.61141240D-03 -0.00000000D+00 -0.00000000D+00 -0.00000000D+00 -0.73857180D-07
  0.97244408D-07 -0.00000000D+00 -0.00000000D+00 -0.00000000D+00 -0.00000000D+00
  0.95164874D-09 -0.12529892D-08  0.00000000D+00
MO   16     MO 0.0        OCC NO =    0.0000000  ORB. ENERGY =    0.028819
 -0.16562826D-04  0.30952734D-02 -0.24935836D-02  0.11179642D-01 -0.14253772D-01
 -0.12378608D-03 -0.73703208D-02  0.10734484D-01  0.65680467D-03  0.29146753D-03
  0.21376403D-06 -0.00000000D+00  0.00000000D+00  0.73218425D-04  0.00000000D+00
 -0.00000000D+00 -0.15870795D-03  0.00000000D+00 -0.00000000D+00 -0.20056165D-03
 -0.00000000D+00  0.00000000D+00  0.42835585D-08 -0.34178080D-09 -0.34178080D-09
 -0.00000000D+00  0.00000000D+00  0.00000000D+00  0.47937202D-06  0.10139100D-06
  0.10139100D-06  0.00000000D+00 -0.00000000D+00 -0.00000000D+00  0.16562826D-04
 -0.30952734D-02  0.24935836D-02 -0.11179642D-01  0.14253772D-01  0.12378608D-03
  0.73703208D-02 -0.10734484D-01 -0.65680467D-03 -0.29146753D-03  0.21376403D-06
  0.00000000D+00 -0.00000000D+00  0.73218425D-04 -0.00000000D+00  0.00000000D+00
 -0.15870795D-03 -0.00000000D+00  0.00000000D+00 -0.20056165D-03  0.00000000D+00
 -0.00000000D+00 -0.42835585D-08  0.34178080D-09  0.34178080D-09 -0.00000000D+00
  0.00000000D+00 -0.00000000D+00 -0.47937202D-06 -0.10139100D-06 -0.10139100D-06
  0.00000000D+00 -0.00000000D+00  0.00000000D+00
MO   17     MO 0.0        OCC NO =    0.0000000  ORB. ENERGY =    0.031558
 -0.39104914D-02 -0.36364984D-02  0.15538354D-01 -0.13697343D-01  0.87047373D-02
  0.65818576D-03  0.31304889D-02 -0.49553029D-02 -0.52062739D-03 -0.64688973D-04
  0.43457478D-04 -0.00000000D+00  0.00000000D+00 -0.83125950D-04  0.00000000D+00
  0.00000000D+00  0.19012789D-03 -0.00000000D+00 -0.00000000D+00 -0.46608361D-03
 -0.00000000D+00  0.00000000D+00  0.35653661D-06  0.90537487D-07  0.90537487D-07
 -0.00000000D+00  0.00000000D+00  0.00000000D+00  0.98266684D-06  0.18478542D-05
  0.18478542D-05 -0.00000000D+00  0.00000000D+00 -0.00000000D+00 -0.39104914D-02
 -0.36364984D-02  0.15538354D-01 -0.13697343D-01  0.87047373D-02  0.65818576D-03
  0.31304889D-02 -0.49553029D-02 -0.52062739D-03 -0.64688973D-04 -0.43457478D-04
  0.00000000D+00 -0.00000000D+00  0.83125950D-04 -0.00000000D+00 -0.00000000D+00
 -0.19012789D-03  0.00000000D+00  0.00000000D+00  0.46608361D-03  0.00000000D+00
 -0.00000000D+00  0.35653661D-06  0.90537487D-07  0.90537487D-07 -0.00000000D+00
  0.00000000D+00 -0.00000000D+00  0.98266684D-06  0.18478542D-05  0.18478542D-05
 -0.00000000D+00  0.00000000D+00  0.00000000D+00
MO   18     MO 0.0        OCC NO =    0.0000000  ORB. ENERGY =    0.034088
 -0.57530607D-03 -0.14898103D-02  0.85436042D-02 -0.16097334D-01  0.14814205D-01
 -0.82391874D-03  0.62165014D-02 -0.85646393D-02 -0.30816278D-03 -0.30459008D-03
 -0.38308563D-05 -0.00000000D+00  0.00000000D+00  0.64046889D-06  0.00000000D+00
 -0.00000000D+00 -0.15637618D-03  0.00000000D+00  0.00000000D+00  0.51651281D-03
 -0.00000000D+00 -0.00000000D+00  0.46471033D-08  0.23193603D-07  0.23193603D-07
 -0.00000000D+00  0.00000000D+00  0.00000000D+00  0.38177832D-06  0.53014124D-06
  0.53014124D-06  0.00000000D+00 -0.00000000D+00 -0.00000000D+00 -0.57530607D-03
 -0.14898103D-02  0.85436042D-02 -0.16097334D-01  0.14814205D-01 -0.82391874D-03
  0.62165014D-02 -0.85646393D-02 -0.30816278D-03 -0.30459008D-03  0.38308563D-05
  0.00000000D+00 -0.00000000D+00 -0.64046889D-06 -0.00000000D+00  0.00000000D+00
  0.15637618D-03  0.00000000D+00 -0.00000000D+00 -0.51651281D-03 -0.00000000D+00
 -0.00000000D+00  0.46471033D-08  0.23193603D-07  0.23193603D-07 -0.00000000D+00
  0.00000000D+00 -0.00000000D+00  0.38177832D-06  0.53014124D-06  0.53014124D-06
  0.00000000D+00 -0.00000000D+00  0.00000000D+00
MO   19     MO 0.0        OCC NO =    0.0000000  ORB. ENERGY =    0.034600
 -0.14712671D-04  0.10100274D-01  0.17190765D-02 -0.86808978D-02  0.95572696D-02
 -0.13649806D-02  0.41952874D-02 -0.53334209D-02  0.40868770D-04 -0.26490265D-03
 -0.12649626D-05 -0.00000000D+00  0.00000000D+00  0.23490741D-03  0.00000000D+00
  0.00000000D+00 -0.32728753D-03 -0.00000000D+00 -0.00000000D+00  0.58627414D-03
  0.00000000D+00  0.00000000D+00 -0.15172877D-07 -0.15078494D-07 -0.15078494D-07
 -0.00000000D+00  0.00000000D+00  0.00000000D+00  0.14306883D-05  0.88132993D-07
  0.88132993D-07  0.00000000D+00  0.00000000D+00 -0.00000000D+00  0.14712671D-04
 -0.10100274D-01 -0.17190765D-02  0.86808978D-02 -0.95572696D-02  0.13649806D-02
 -0.41952874D-02  0.53334209D-02 -0.40868770D-04  0.26490265D-03 -0.12649626D-05
  0.00000000D+00 -0.00000000D+00  0.23490741D-03 -0.00000000D+00 -0.00000000D+00
 -0.32728753D-03  0.00000000D+00 -0.00000000D+00  0.58627414D-03  0.00000000D+00
  0.00000000D+00  0.15172877D-07  0.15078494D-07  0.15078494D-07 -0.00000000D+00
  0.00000000D+00 -0.00000000D+00 -0.14306883D-05 -0.88132993D-07 -0.88132993D-07
  0.00000000D+00  0.00000000D+00  0.00000000D+00
MO   20     MO 0.0        OCC NO =    0.0000000  ORB. ENERGY =    0.039667
  0.90108780D-03  0.20611695D-02 -0.14923070D-01  0.11754613D-01 -0.65486431D-02
 -0.14627940D-02 -0.19523760D-02  0.35843077D-02  0.58933431D-03 -0.19221934D-04
 -0.51819258D-04 -0.00000000D+00  0.00000000D+00  0.58233654D-04  0.00000000D+00
 -0.00000000D+00  0.59911572D-04 -0.00000000D+00  0.00000000D+00 -0.62557993D-04
  0.00000000D+00 -0.00000000D+00 -0.62899522D-06 -0.54904124D-06 -0.54904124D-06
 -0.00000000D+00  0.00000000D+00 -0.00000000D+00 -0.32917467D-05 -0.34840412D-05
 -0.34840412D-05  0.00000000D+00 -0.00000000D+00  0.00000000D+00 -0.90108780D-03
 -0.20611695D-02  0.14923070D-01 -0.11754613D-01  0.65486431D-02  0.14627940D-02
  0.19523760D-02 -0.35843077D-02 -0.58933431D-03  0.19221934D-04 -0.51819258D-04
  0.00000000D+00 -0.00000000D+00  0.58233654D-04 -0.00000000D+00  0.00000000D+00
  0.59911572D-04  0.00000000D+00 -0.00000000D+00 -0.62557993D-04  0.00000000D+00
  0.00000000D+00  0.62899522D-06  0.54904124D-06  0.54904124D-06 -0.00000000D+00
  0.00000000D+00 -0.00000000D+00  0.32917467D-05  0.34840412D-05  0.34840412D-05
  0.00000000D+00 -0.00000000D+00 -0.00000000D+00
MO   21     MO 0.0        OCC NO =    0.0000000  ORB. ENERGY =    0.042513
  0.70039905D-02 -0.32079754D-02 -0.19509396D-02 -0.35554137D-03  0.14644748D-03
  0.96629993D-03 -0.58601027D-04 -0.40728816D-03 -0.25989025D-03  0.63859931D-04
 -0.76629945D-04 -0.00000000D+00  0.00000000D+00  0.30975524D-04  0.00000000D+00
 -0.00000000D+00 -0.34458912D-04 -0.00000000D+00 -0.00000000D+00  0.16431852D-04
  0.00000000D+00  0.00000000D+00 -0.72551701D-06 -0.20252142D-06 -0.20252142D-06
 -0.00000000D+00  0.00000000D+00 -0.00000000D+00 -0.10287857D-05 -0.15310406D-05
 -0.15310406D-05  0.00000000D+00 -0.00000000D+00 -0.00000000D+00  0.70039905D-02
 -0.32079754D-02 -0.19509396D-02 -0.35554137D-03  0.14644748D-03  0.96629993D-03
 -0.58601027D-04 -0.40728816D-03 -0.25989025D-03  0.63859931D-04  0.76629945D-04
  0.00000000D+00 -0.00000000D+00 -0.30975524D-04 -0.00000000D+00  0.00000000D+00
  0.34458912D-04  0.00000000D+00 -0.00000000D+00 -0.16431852D-04 -0.00000000D+00
  0.00000000D+00 -0.72551701D-06 -0.20252142D-06 -0.20252142D-06 -0.00000000D+00
  0.00000000D+00 -0.00000000D+00 -0.10287857D-05 -0.15310406D-05 -0.15310406D-05
  0.00000000D+00 -0.00000000D+00  0.00000000D+00
MO   22     MO 0.0        OCC NO =    0.0000000  ORB. ENERGY =    0.043229
 -0.00000000D+00  0.00000000D+00 -0.00000000D+00  0.00000000D+00 -0.00000000D+00
 -0.00000000D+00 -0.00000000D+00  0.00000000D+00  0.00000000D+00 -0.00000000D+00
  0.00000000D+00 -0.00000000D+00  0.00000000D+00  0.00000000D+00  0.00000000D+00
  0.00000000D+00  0.00000000D+00 -0.00000000D+00 -0.00000000D+00 -0.00000000D+00
  0.00000000D+00  0.00000000D+00  0.00000000D+00 -0.40154887D-08  0.40154887D-08
 -0.00000000D+00 -0.00000000D+00 -0.10968163D-06  0.00000000D+00  0.50726717D-07
 -0.50726717D-07  0.00000000D+00  0.00000000D+00  0.13855822D-05  0.00000000D+00
 -0.00000000D+00  0.00000000D+00 -0.00000000D+00  0.00000000D+00  0.00000000D+00
  0.00000000D+00 -0.00000000D+00 -0.00000000D+00  0.00000000D+00  0.00000000D+00
  0.00000000D+00  0.00000000D+00  0.00000000D+00 -0.00000000D+00  0.00000000D+00
  0.00000000D+00 -0.00000000D+00 -0.00000000D+00 -0.00000000D+00  0.00000000D+00
  0.00000000D+00 -0.00000000D+00 -0.40154887D-08  0.40154887D-08 -0.00000000D+00
  0.00000000D+00 -0.10968163D-06 -0.00000000D+00  0.50726717D-07 -0.50726717D-07
 -0.00000000D+00 -0.00000000D+00  0.13855822D-05
MO   23     MO 0.0        OCC NO =    0.0000000  ORB. ENERGY =    0.043229
 -0.00000000D+00  0.00000000D+00 -0.00000000D+00  0.00000000D+00 -0.00000000D+00
 -0.00000000D+00 -0.00000000D+00  0.00000000D+00  0.00000000D+00 -0.00000000D+00
  0.00000000D+00  0.00000000D+00  0.00000000D+00  0.00000000D+00 -0.00000000D+00
  0.00000000D+00  0.00000000D+00  0.00000000D+00 -0.00000000D+00 -0.00000000D+00
 -0.00000000D+00  0.00000000D+00  0.00000000D+00 -0.54840812D-07  0.54840812D-07
  0.00000000D+00 -0.00000000D+00  0.80309762D-08  0.00000000D+00  0.69279111D-06
 -0.69279111D-06 -0.00000000D+00  0.00000000D+00 -0.10145345D-06 -0.00000000D+00
 -0.00000000D+00  0.00000000D+00 -0.00000000D+00  0.00000000D+00  0.00000000D+00
  0.00000000D+00 -0.00000000D+00 -0.00000000D+00  0.00000000D+00  0.00000000D+00
 -0.00000000D+00 -0.00000000D+00  0.00000000D+00 -0.00000000D+00  0.00000000D+00
  0.00000000D+00  0.00000000D+00 -0.00000000D+00 -0.00000000D+00 -0.00000000D+00
  0.00000000D+00 -0.00000000D+00 -0.54840812D-07  0.54840812D-07  0.00000000D+00
  0.00000000D+00  0.80309762D-08 -0.00000000D+00  0.69279111D-06 -0.69279111D-06
  0.00000000D+00 -0.00000000D+00 -0.10145345D-06
MO   24     MO 0.0        OCC NO =    0.0000000  ORB. ENERGY =    0.043298
 -0.22296721D-03  0.38653126D-01 -0.15081778D-01  0.13791192D-01 -0.57723388D-02
 -0.62659390D-02 -0.96546760D-03  0.45575740D-02  0.17812622D-02 -0.35308904D-03
  0.39833606D-05 -0.00000000D+00  0.00000000D+00  0.62618634D-03  0.00000000D+00
 -0.00000000D+00  0.46337842D-04 -0.00000000D+00 -0.00000000D+00 -0.78101304D-04
  0.00000000D+00  0.00000000D+00  0.11850688D-06  0.16906159D-06  0.16906159D-06
 -0.00000000D+00  0.00000000D+00  0.00000000D+00  0.29116563D-05 -0.11601647D-05
 -0.11601647D-05  0.00000000D+00  0.00000000D+00 -0.00000000D+00  0.22296721D-03
 -0.38653126D-01  0.15081778D-01 -0.13791192D-01  0.57723388D-02  0.62659390D-02
  0.96546760D-03 -0.45575740D-02 -0.17812622D-02  0.35308904D-03  0.39833606D-05
  0.00000000D+00 -0.00000000D+00  0.62618634D-03 -0.00000000D+00  0.00000000D+00