[Molden Format]
[Atoms] AU
E+       1       4     0.00000000     0.00000000     0.00000000
E+       2       4    24.00000000     0.00000000     0.00000000
[GTO]
  1 0
s  1 1.00
   1.0000000000E-04   1.0000000000E+00
s  1 1.00
   3.0000000000E-04   1.0000000000E+00
s  1 1.00
   9.0000000000E-04   1.0000000000E+00
s  1 1.00
   2.7000000000E-03   1.0000000000E+00
s  1 1.00
   8.1000000000E-03   1.0000000000E+00
s  1 1.00
   2.4300000000E-02   1.0000000000E+00
s  1 1.00
   7.2900000000E-02   1.0000000000E+00
s  1 1.00
   2.1870000000E-01   1.0000000000E+00
s  1 1.00
   6.5610000000E-01   1.0000000000E+00
s  1 1.00
   1.9683000000E+00   1.0000000000E+00
p  1 1.00
   1.0000000000E-04   1.0000000000E+00
p  1 1.00
   3.0000000000E-04   1.0000000000E+00
p  1 1.00
   9.0000000000E-04   1.0000000000E+00
p  1 1.00
   2.7000000000E-03   1.0000000000E+00
d  1 1.00
   1.0000000000E-04   1.0000000000E+00
d  1 1.00
   3.0000000000E-04   1.0000000000E+00
 
  2 0
s  1 1.00
   1.0000000000E-04   1.0000000000E+00
s  1 1.00
   3.0000000000E-04   1.0000000000E+00
s  1 1.00
   9.0000000000E-04   1.0000000000E+00
s  1 1.00
   2.7000000000E-03   1.0000000000E+00
s  1 1.00
   8.1000000000E-03   1.0000000000E+00
s  1 1.00
   2.4300000000E-02   1.0000000000E+00
s  1 1.00
   7.2900000000E-02   1.0000000000E+00
s  1 1.00
   2.1870000000E-01   1.0000000000E+00
s  1 1.00
   6.5610000000E-01   1.0000000000E+00
s  1 1.00
   1.9683000000E+00   1.0000000000E+00
p  1 1.00
   1.0000000000E-04   1.0000000000E+00
p  1 1.00
   3.0000000000E-04   1.0000000000E+00
p  1 1.00
   9.0000000000E-04   1.0000000000E+00
p  1 1.00
   2.7000000000E-03   1.0000000000E+00
d  1 1.00
   1.0000000000E-04   1.0000000000E+00
d  1 1.00
   3.0000000000E-04   1.0000000000E+00
 
 
[MO]
Ene=    -3.35078E-03
Spin= Alpha
Occup=   1.0000000000
   1      -0.01893615
   2       0.00264490
   3       0.03187888
   4       0.26347889
   5       0.20776312
   6       0.17552126
   7       0.10750966
   8      -0.08791047
   9      -0.00613701
  10       0.00010629
  11       0.10305978
  12       0.00000000
  13      -0.00000000
  14      -0.01384409
  15      -0.00000000
  16       0.00000000
  17       0.01809348
  18       0.00000000
  19       0.00000000
  20      -0.00138131
  21      -0.00000000
  22      -0.00000000
  23       0.02060212
  24      -0.00088114
  25      -0.00088114
  26       0.00000000
  27      -0.00000000
  28      -0.00000000
  29      -0.00515294
  30      -0.00198961
  31      -0.00198961
  32      -0.00000000
  33       0.00000000
  34       0.00000000
  35      -0.01893615
  36       0.00264490
  37       0.03187888
  38       0.26347889
  39       0.20776312
  40       0.17552126
  41       0.10750966
  42      -0.08791047
  43      -0.00613701
  44       0.00010629
  45      -0.10305978
  46      -0.00000000
  47       0.00000000
  48       0.01384409
  49       0.00000000
  50      -0.00000000
  51      -0.01809348
  52      -0.00000000
  53      -0.00000000
  54       0.00138131
  55       0.00000000
  56       0.00000000
  57       0.02060212
  58      -0.00088114
  59      -0.00088114
  60       0.00000000
  61      -0.00000000
  62       0.00000000
  63      -0.00515294
  64      -0.00198961
  65      -0.00198961
  66      -0.00000000
  67       0.00000000
  68      -0.00000000
Ene=    -1.27563E-03
Spin= Alpha
Occup=   0.0000000000
   1      -0.00021142
   2      -0.00340845
   3      -0.42066954
   4      -0.34290266
   5      -0.23945352
   6      -0.19800033
   7      -0.11440814
   8       0.09458154
   9       0.00681366
  10      -0.00014180
  11       0.00136665
  12       0.00000000
  13       0.00000000
  14       0.01124961
  15      -0.00000000
  16      -0.00000000
  17      -0.16146023
  18      -0.00000000
  19       0.00000000
  20       0.07482392
  21       0.00000000
  22      -0.00000000
  23       0.00787514
  24      -0.00285812
  25      -0.00285812
  26       0.00000000
  27       0.00000000
  28       0.00000000
  29       0.00668040
  30       0.02219452
  31       0.02219452
  32      -0.00000000
  33      -0.00000000
  34      -0.00000000
  35       0.00021142
  36       0.00340845
  37       0.42066954
  38       0.34290266
  39       0.23945352
  40       0.19800033
  41       0.11440814
  42      -0.09458154
  43      -0.00681366
  44       0.00014180
  45       0.00136665
  46      -0.00000000
  47      -0.00000000
  48       0.01124961
  49       0.00000000
  50       0.00000000
  51      -0.16146023
  52      -0.00000000
  53       0.00000000
  54       0.07482392
  55       0.00000000
  56      -0.00000000
  57      -0.00787514
  58       0.00285812
  59       0.00285812
  60       0.00000000
  61       0.00000000
  62       0.00000000
  63      -0.00668040
  64      -0.02219452
  65      -0.02219452
  66      -0.00000000
  67      -0.00000000
  68      -0.00000000
Ene=     3.73737E-03
Spin= Alpha
Occup=   0.0000000000
   1      -0.92080155
   2       0.14953901
   3       1.15052218
   4      -0.89334560
   5       0.04274985
   6      -0.12091546
   7      -0.02810347
   8       0.03076558
   9       0.00352288
  10      -0.00023085
  11       3.28258230
  12      -0.00000000
  13       0.00000000
  14      -1.07597429
  15       0.00000000
  16      -0.00000000
  17       0.49751267
  18      -0.00000000
  19       0.00000000
  20      -0.09145970
  21       0.00000000
  22      -0.00000000
  23       0.70727300
  24       0.01861784
  25       0.01861784
  26      -0.00000000
  27       0.00000000
  28       0.00000000
  29      -0.27044161
  30       0.07407194
  31       0.07407194
  32       0.00000000
  33      -0.00000000
  34       0.00000000
  35      -0.92080155
  36       0.14953901
  37       1.15052218
  38      -0.89334560
  39       0.04274985
  40      -0.12091546
  41      -0.02810347
  42       0.03076558
  43       0.00352288
  44      -0.00023085
  45      -3.28258230
  46       0.00000000
  47      -0.00000000
  48       1.07597429
  49      -0.00000000
  50       0.00000000
  51      -0.49751267
  52       0.00000000
  53      -0.00000000
  54       0.09145970
  55      -0.00000000
  56       0.00000000
  57       0.70727300
  58       0.01861784
  59       0.01861784
  60      -0.00000000
  61       0.00000000
  62      -0.00000000
  63      -0.27044161
  64       0.07407194
  65       0.07407194
  66       0.00000000
  67      -0.00000000
  68      -0.00000000
Ene=     4.26563E-03
Spin= Alpha
Occup=   0.0000000000
   1       0.00000000
   2       0.00000000
   3       0.00000000
   4      -0.00000000
   5      -0.00000000
   6      -0.00000000
   7      -0.00000000
   8       0.00000000
   9       0.00000000
  10      -0.00000000
  11      -0.00000000
  12       0.00308211
  13       0.02930853
  14      -0.00000000
  15      -0.01169865
  16      -0.11124524
  17       0.00000000
  18       0.04779604
  19       0.45450368
  20      -0.00000000
  21       0.01944850
  22       0.18494032
  23      -0.00000000
  24      -0.00000000
  25      -0.00000000
  26       0.00389430
  27       0.03703182
  28       0.00000000
  29      -0.00000000
  30       0.00000000
  31       0.00000000
  32      -0.00003747
  33      -0.00035632
  34      -0.00000000
  35       0.00000000
  36       0.00000000
  37       0.00000000
  38      -0.00000000
  39      -0.00000000
  40      -0.00000000
  41       0.00000000
  42       0.00000000
  43      -0.00000000
  44       0.00000000
  45       0.00000000
  46       0.00308211
  47       0.02930853
  48       0.00000000
  49      -0.01169865
  50      -0.11124524
  51      -0.00000000
  52       0.04779604
  53       0.45450368
  54       0.00000000
  55       0.01944850
  56       0.18494032
  57      -0.00000000
  58       0.00000000
  59       0.00000000
  60      -0.00389430
  61      -0.03703182
  62      -0.00000000
  63      -0.00000000
  64       0.00000000
  65       0.00000000
  66       0.00003747
  67       0.00035632
  68       0.00000000
Ene=     4.26563E-03
Spin= Alpha
Occup=   0.0000000000
   1       0.00000000
   2      -0.00000000
   3       0.00000000
   4      -0.00000000
   5       0.00000000
   6      -0.00000000
   7      -0.00000000
   8       0.00000000
   9       0.00000000
  10       0.00000000
  11      -0.00000000
  12      -0.02930853
  13       0.00308211
  14       0.00000000
  15       0.11124524
  16      -0.01169865
  17       0.00000000
  18      -0.45450368
  19       0.04779604
  20      -0.00000000
  21      -0.18494032
  22       0.01944850
  23      -0.00000000
  24       0.00000000
  25       0.00000000
  26      -0.03703182
  27       0.00389430
  28       0.00000000
  29       0.00000000
  30       0.00000000
  31       0.00000000
  32       0.00035632
  33      -0.00003747
  34       0.00000000
  35       0.00000000
  36      -0.00000000
  37      -0.00000000
  38      -0.00000000
  39      -0.00000000
  40      -0.00000000
  41      -0.00000000
  42       0.00000000
  43       0.00000000
  44      -0.00000000
  45       0.00000000
  46      -0.02930853
  47       0.00308211
  48      -0.00000000
  49       0.11124524
  50      -0.01169865
  51       0.00000000
  52      -0.45450368
  53       0.04779604
  54      -0.00000000
  55      -0.18494032
  56       0.01944850
  57      -0.00000000
  58       0.00000000
  59       0.00000000
  60       0.03703182
  61      -0.00389430
  62      -0.00000000
  63       0.00000000
  64       0.00000000
  65       0.00000000
  66      -0.00035632
  67       0.00003747
  68       0.00000000
Ene=     6.45550E-03
Spin= Alpha
Occup=   0.0000000000
   1      -0.01552970
   2      -0.00049973
   3       5.67179378
   4      -0.28617287
   5      -0.38214938
   6      -0.05949455
   7      -0.07797754
   8       0.05613232
   9       0.00269376
  10       0.00011522
  11       0.11689637
  12      -0.00000000
  13       0.00000000
  14       0.00982976
  15      -0.00000000
  16      -0.00000000
  17       1.56596020
  18       0.00000000
  19       0.00000000
  20      -0.14685450
  21       0.00000000
  22       0.00000000
  23       0.13825388
  24       0.22584978
  25       0.22584978
  26      -0.00000000
  27       0.00000000
  28      -0.00000000
  29       0.34755132
  30       0.19619215
  31       0.19619215
  32      -0.00000000
  33      -0.00000000
  34       0.00000000
  35       0.01552970
  36       0.00049973
  37      -5.67179378
  38       0.28617287
  39       0.38214938
  40       0.05949455
  41       0.07797754
  42      -0.05613232
  43      -0.00269376
  44      -0.00011522
  45       0.11689637
  46       0.00000000
  47      -0.00000000
  48       0.00982976
  49       0.00000000
  50       0.00000000
  51       1.56596020
  52      -0.00000000
  53      -0.00000000
  54      -0.14685450
  55      -0.00000000
  56      -0.00000000
  57      -0.13825388
  58      -0.22584978
  59      -0.22584978
  60      -0.00000000
  61       0.00000000
  62       0.00000000
  63      -0.34755132
  64      -0.19619215
  65      -0.19619215
  66      -0.00000000
  67      -0.00000000
  68       0.00000000
Ene=     6.98265E-03
Spin= Alpha
Occup=   0.0000000000
   1      -0.76614495
   2       0.47290516
   3       0.06263277
   4      -0.68947599
   5       0.24943495
   6      -0.02977614
   7       0.02478328
   8      -0.01319007
   9       0.00020475
  10      -0.00014622
  11       3.49828299
  12      -0.00000000
  13       0.00000000
  14      -0.97609058
  15       0.00000000
  16      -0.00000000
  17       0.38105034
  18      -0.00000000
  19       0.00000000
  20       0.56466749
  21      -0.00000000
  22       0.00000000
  23       0.72449821
  24      -0.01068789
  25      -0.01068789
  26      -0.00000000
  27       0.00000000
  28       0.00000000
  29      -0.36146239
  30      -0.04860137
  31      -0.04860137
  32       0.00000000
  33      -0.00000000
  34       0.00000000
  35      -0.76614495
  36       0.47290516
  37       0.06263277
  38      -0.68947599
  39       0.24943495
  40      -0.02977614
  41       0.02478328
  42      -0.01319007
  43       0.00020475
  44      -0.00014622
  45      -3.49828299
  46       0.00000000
  47      -0.00000000
  48       0.97609058
  49      -0.00000000
  50       0.00000000
  51      -0.38105034
  52       0.00000000
  53      -0.00000000
  54      -0.56466749
  55       0.00000000
  56      -0.00000000
  57       0.72449821
  58      -0.01068789
  59      -0.01068789
  60      -0.00000000
  61       0.00000000
  62      -0.00000000
  63      -0.36146239
  64      -0.04860137
  65      -0.04860137
  66       0.00000000
  67      -0.00000000
  68       0.00000000
Ene=     7.16261E-03
Spin= Alpha
Occup=   0.0000000000
   1       0.00000000
   2       0.00000000
   3       0.00000000
   4      -0.00000000
   5       0.00000000
   6      -0.00000000
   7       0.00000000
   8      -0.00000000
   9       0.00000000
  10      -0.00000000
  11      -0.00000000
  12       9.43343503
  13      -1.28141864
  14       0.00000000
  15      -2.08549808
  16       0.28328982
  17       0.00000000
  18       0.70134510
  19      -0.09526929
  20       0.00000000
  21       0.64808763
  22      -0.08803491
  23      -0.00000000
  24       0.00000000
  25       0.00000000
  26       1.12914380
  27      -0.15338060
  28       0.00000000
  29       0.00000000
  30       0.00000000
  31       0.00000000
  32      -0.37804535
  33       0.05135291
  34      -0.00000000
  35      -0.00000000
  36      -0.00000000
  37       0.00000000
  38      -0.00000000
  39       0.00000000
  40      -0.00000000
  41       0.00000000
  42      -0.00000000
  43       0.00000000
  44      -0.00000000
  45       0.00000000
  46      -9.43343503
  47       1.28141864
  48       0.00000000
  49       2.08549808
  50      -0.28328982
  51      -0.00000000
  52      -0.70134510
  53       0.09526929
  54      -0.00000000
  55      -0.64808763
  56       0.08803491
  57      -0.00000000
  58       0.00000000
  59       0.00000000
  60       1.12914380
  61      -0.15338060
  62      -0.00000000
  63      -0.00000000
  64       0.00000000
  65       0.00000000
  66      -0.37804535
  67       0.05135291
  68       0.00000000
Ene=     7.16261E-03
Spin= Alpha
Occup=   0.0000000000
   1      -0.00000000
   2      -0.00000000
   3       0.00000000
   4      -0.00000000
   5       0.00000000
   6       0.00000000
   7       0.00000000
   8      -0.00000000
   9      -0.00000000
  10       0.00000000
  11       0.00000000
  12       1.28141864
  13       9.43343503
  14      -0.00000000
  15      -0.28328982
  16      -2.08549808
  17       0.00000000
  18       0.09526929
  19       0.70134510
  20       0.00000000
  21       0.08803491
  22       0.64808763
  23       0.00000000
  24      -0.00000000
  25      -0.00000000
  26       0.15338060
  27       1.12914380
  28      -0.00000000
  29      -0.00000000
  30      -0.00000000
  31      -0.00000000
  32      -0.05135291
  33      -0.37804535
  34       0.00000000
  35       0.00000000
  36       0.00000000
  37      -0.00000000
  38      -0.00000000
  39      -0.00000000
  40      -0.00000000
  41      -0.00000000
  42       0.00000000
  43      -0.00000000
  44       0.00000000
  45      -0.00000000
  46      -1.28141864
  47      -9.43343503
  48      -0.00000000
  49       0.28328982
  50       2.08549808
  51       0.00000000
  52      -0.09526929
  53      -0.70134510
  54       0.00000000
  55      -0.08803491
  56      -0.64808763
  57       0.00000000
  58       0.00000000
  59       0.00000000
  60       0.15338060
  61       1.12914380
  62       0.00000000
  63       0.00000000
  64       0.00000000
  65       0.00000000
  66      -0.05135291
  67      -0.37804535
  68      -0.00000000
Ene=     1.07528E-02
Spin= Alpha
Occup=   0.0000000000
   1      -0.00000000
   2      -0.00000000
   3      -0.00000000
   4      -0.00000000
   5       0.00000000
   6      -0.00000000
   7      -0.00000000
   8       0.00000000
   9       0.00000000
  10       0.00000000
  11       0.00000000
  12       0.02601819
  13      -0.03738942
  14       0.00000000
  15      -0.09844695
  16       0.14147308
  17      -0.00000000
  18       0.47373609
  19      -0.68078194
  20      -0.00000000
  21      -0.50616890
  22       0.72738947
  23       0.00000000
  24      -0.00000000
  25      -0.00000000
  26       0.02462117
  27      -0.03538182
  28      -0.00000000
  29       0.00000000
  30       0.00000000
  31       0.00000000
  32       0.00811251
  33      -0.01165807
  34       0.00000000
  35      -0.00000000
  36      -0.00000000
  37       0.00000000
  38       0.00000000
  39      -0.00000000
  40       0.00000000
  41       0.00000000
  42      -0.00000000
  43      -0.00000000
  44       0.00000000
  45      -0.00000000
  46       0.02601819
  47      -0.03738942
  48      -0.00000000
  49      -0.09844695
  50       0.14147308
  51      -0.00000000
  52       0.47373609
  53      -0.68078194
  54      -0.00000000
  55      -0.50616890
  56       0.72738947
  57       0.00000000
  58       0.00000000
  59       0.00000000
  60      -0.02462117
  61       0.03538182
  62       0.00000000
  63       0.00000000
  64      -0.00000000
  65      -0.00000000
  66      -0.00811251
  67       0.01165807
  68      -0.00000000
Ene=     1.07528E-02
Spin= Alpha
Occup=   0.0000000000
   1       0.00000000
   2       0.00000000
   3      -0.00000000
   4      -0.00000000
   5      -0.00000000
   6      -0.00000000
   7      -0.00000000
   8       0.00000000
   9       0.00000000
  10       0.00000000
  11      -0.00000000
  12      -0.03738942
  13      -0.02601819
  14      -0.00000000
  15       0.14147308
  16       0.09844695
  17      -0.00000000
  18      -0.68078194
  19      -0.47373609
  20      -0.00000000
  21       0.72738947
  22       0.50616890
  23      -0.00000000
  24      -0.00000000
  25      -0.00000000
  26      -0.03538182
  27      -0.02462117
  28       0.00000000
  29      -0.00000000
  30       0.00000000
  31       0.00000000
  32      -0.01165807
  33      -0.00811251
  34      -0.00000000
  35       0.00000000
  36       0.00000000
  37       0.00000000
  38       0.00000000
  39       0.00000000
  40       0.00000000
  41       0.00000000
  42      -0.00000000
  43      -0.00000000
  44      -0.00000000
  45       0.00000000
  46      -0.03738942
  47      -0.02601819
  48       0.00000000
  49       0.14147308
  50       0.09844695
  51      -0.00000000
  52      -0.68078194
  53      -0.47373609
  54      -0.00000000
  55       0.72738947
  56       0.50616890
  57      -0.00000000
  58       0.00000000
  59       0.00000000
  60       0.03538182
  61       0.02462117
  62      -0.00000000
  63       0.00000000
  64      -0.00000000
  65      -0.00000000
  66       0.01165807
  67       0.00811251
  68       0.00000000
Ene=     1.08016E-02
Spin= Alpha
Occup=   0.0000000000
   1      -0.00984347
   2       0.03497950
   3       9.35479585
   4       0.62869052
   5       0.02606796
   6       0.05269670
   7       0.01592640
   8      -0.01577143
   9      -0.00160983
  10       0.00008838
  11       0.07591690
  12      -0.00000000
  13       0.00000000
  14      -0.10210373
  15      -0.00000000
  16      -0.00000000
  17       3.05219963
  18      -0.00000000
  19       0.00000000
  20       1.82356093
  21       0.00000000
  22       0.00000000
  23       0.03008870
  24       0.19978614
  25       0.19978614
  26      -0.00000000
  27       0.00000000
  28      -0.00000000
  29       0.19809870
  30      -0.06320061
  31      -0.06320061
  32      -0.00000000
  33      -0.00000000
  34       0.00000000
  35       0.00984347
  36      -0.03497950
  37      -9.35479585
  38      -0.62869052
  39      -0.02606796
  40      -0.05269670
  41      -0.01592640
  42       0.01577143
  43       0.00160983
  44      -0.00008838
  45       0.07591690
  46       0.00000000
  47      -0.00000000
  48      -0.10210373
  49       0.00000000
  50       0.00000000
  51       3.05219963
  52      -0.00000000
  53      -0.00000000
  54       1.82356093
  55       0.00000000
  56       0.00000000
  57      -0.03008870
  58      -0.19978614
  59      -0.19978614
  60      -0.00000000
  61       0.00000000
  62       0.00000000
  63      -0.19809870
  64       0.06320061
  65       0.06320061
  66      -0.00000000
  67      -0.00000000
  68      -0.00000000
Ene=     1.29898E-02
Spin= Alpha
Occup=   0.0000000000
   1      -0.76876854
   2       0.75983617
   3      -0.03059438
   4      -1.50569749
   5       1.23465644
   6      -0.08457360
   7       0.14232574
   8      -0.08252242
   9      -0.00028700
  10      -0.00069835
  11       5.23828347
  12      -0.00000000
  13       0.00000000
  14      -0.81934123
  15       0.00000000
  16      -0.00000000
  17       0.69546464
  18      -0.00000000
  19       0.00000000
  20      -0.35438447
  21       0.00000000
  22      -0.00000000
  23       1.02628221
  24      -0.07175765
  25      -0.07175765
  26      -0.00000000
  27       0.00000000
  28       0.00000000
  29      -0.47525211
  30      -0.24762940
  31      -0.24762940
  32       0.00000000
  33      -0.00000000
  34      -0.00000000
  35      -0.76876854
  36       0.75983617
  37      -0.03059438
  38      -1.50569749
  39       1.23465644
  40      -0.08457360
  41       0.14232574
  42      -0.08252242
  43      -0.00028700
  44      -0.00069835
  45      -5.23828347
  46       0.00000000
  47      -0.00000000
  48       0.81934123
  49      -0.00000000
  50       0.00000000
  51      -0.69546464
  52       0.00000000
  53      -0.00000000
  54       0.35438447
  55      -0.00000000
  56       0.00000000
  57       1.02628221
  58      -0.07175765
  59      -0.07175765
  60      -0.00000000
  61       0.00000000
  62      -0.00000000
  63      -0.47525211
  64      -0.24762940
  65      -0.24762940
  66       0.00000000
  67      -0.00000000
  68       0.00000000
Ene=     1.60260E-02
Spin= Alpha
Occup=   0.0000000000
   1      -0.00000000
   2       0.00000000
   3      -0.00000000
   4       0.00000000
   5      -0.00000000
   6      -0.00000000
   7      -0.00000000
   8       0.00000000
   9       0.00000000
  10      -0.00000000
  11       0.00000000
  12     -22.19752650
  13     -10.06988970
  14      -0.00000000
  15       4.69841257
  16       2.13143101
  17       0.00000000
  18      -2.04408528
  19      -0.92729761
  20      -0.00000000
  21       1.03764299
  22       0.47072589
  23       0.00000000
  24      -0.00000000
  25      -0.00000000
  26      -2.65590157
  27      -1.20484757
  28      -0.00000000
  29      -0.00000000
  30      -0.00000000
  31      -0.00000000
  32       0.83917330
  33       0.38069028
  34       0.00000000
  35       0.00000000
  36      -0.00000000
  37      -0.00000000
  38       0.00000000
  39      -0.00000000
  40       0.00000000
  41      -0.00000000
  42       0.00000000
  43      -0.00000000
  44       0.00000000
  45      -0.00000000
  46      22.19752650
  47      10.06988970
  48       0.00000000
  49      -4.69841257
  50      -2.13143101
  51      -0.00000000
  52       2.04408528
  53       0.92729761
  54       0.00000000
  55      -1.03764299
  56      -0.47072589
  57       0.00000000
  58      -0.00000000
  59      -0.00000000
  60      -2.65590157
  61      -1.20484757
  62       0.00000000
  63      -0.00000000
  64      -0.00000000
  65      -0.00000000
  66       0.83917330
  67       0.38069028
  68      -0.00000000
Ene=     1.60260E-02
Spin= Alpha
Occup=   0.0000000000
   1      -0.00000000
   2      -0.00000000
   3       0.00000000
   4      -0.00000000
   5       0.00000000
   6      -0.00000000
   7       0.00000000
   8      -0.00000000
   9       0.00000000
  10      -0.00000000
  11       0.00000000
  12     -10.06988969
  13      22.19752650
  14      -0.00000000
  15       2.13143101
  16      -4.69841257
  17       0.00000000
  18      -0.92729761
  19       2.04408528
  20      -0.00000000
  21       0.47072589
  22      -1.03764299
  23       0.00000000
  24      -0.00000000
  25      -0.00000000
  26      -1.20484757
  27       2.65590157
  28      -0.00000000
  29      -0.00000000
  30      -0.00000000
  31      -0.00000000
  32       0.38069028
  33      -0.83917330
  34       0.00000000
  35       0.00000000
  36       0.00000000
  37      -0.00000000
  38       0.00000000
  39      -0.00000000
  40       0.00000000
  41      -0.00000000
  42       0.00000000
  43      -0.00000000
  44       0.00000000
  45      -0.00000000
  46      10.06988969
  47     -22.19752650
  48      -0.00000000
  49      -2.13143101
  50       4.69841257
  51      -0.00000000
  52       0.92729761
  53      -2.04408528
  54      -0.00000000
  55      -0.47072589
  56       1.03764299
  57       0.00000000
  58      -0.00000000
  59      -0.00000000
  60      -1.20484757
  61       2.65590157
  62       0.00000000
  63       0.00000000
  64      -0.00000000
  65      -0.00000000
  66       0.38069028
  67      -0.83917330
  68      -0.00000000
Ene=     1.62822E-02
Spin= Alpha
Occup=   0.0000000000
   1      -0.01536304
   2      -0.04418547
   3       2.72553395
   4      -3.45147468
   5       1.36077897
   6      -0.11669725
   7       0.12100143
   8      -0.06601461
   9       0.00064657
  10      -0.00068454
  11       0.11311671
  12      -0.00000000
  13       0.00000000
  14       0.17852617
  15      -0.00000000
  16       0.00000000
  17      -0.02361708
  18       0.00000000
  19      -0.00000000
  20      -0.69563494
  21      -0.00000000
  22       0.00000000
  23       0.19078613
  24       0.16008112
  25       0.16008112
  26      -0.00000000
  27       0.00000000
  28      -0.00000000
  29       0.42070085
  30       0.42852990
  31       0.42852990
  32       0.00000000
  33       0.00000000
  34       0.00000000
  35       0.01536304
  36       0.04418547
  37      -2.72553395
  38       3.45147468
  39      -1.36077897
  40       0.11669725
  41      -0.12100143
  42       0.06601461
  43      -0.00064657
  44       0.00068454
  45       0.11311672
  46       0.00000000
  47      -0.00000000
  48       0.17852617
  49       0.00000000
  50      -0.00000000
  51      -0.02361708
  52      -0.00000000
  53       0.00000000
  54      -0.69563494
  55       0.00000000
  56      -0.00000000
  57      -0.19078613
  58      -0.16008112
  59      -0.16008112
  60      -0.00000000
  61       0.00000000
  62       0.00000000
  63      -0.42070085
  64      -0.42852990
  65      -0.42852990
  66       0.00000000
  67       0.00000000
  68      -0.00000000
Ene=     1.71127E-02
Spin= Alpha
Occup=   0.0000000000
   1      -3.23149618
   2       2.61956817
   3      -1.80485191
   4       1.17513404
   5      -0.49653897
   6       0.03315994
   7      -0.04318288
   8       0.02471980
   9       0.00009339
  10       0.00020850
  11      15.46415268
  12      -0.00000000
  13       0.00000000
  14      -4.36098257
  15       0.00000000
  16       0.00000000
  17       1.64150438
  18       0.00000000
  19       0.00000000
  20      -0.71604746
  21      -0.00000000
  22      -0.00000000
  23       3.18668860
  24      -0.06932304
  25      -0.06932304
  26      -0.00000000
  27      -0.00000000
  28      -0.00000000
  29      -1.75222413
  30      -0.33671488
  31      -0.33671488
  32       0.00000000
  33       0.00000000
  34       0.00000000
  35      -3.23149618
  36       2.61956817
  37      -1.80485191
  38       1.17513404
  39      -0.49653897
  40       0.03315994
  41      -0.04318288
  42       0.02471980
  43       0.00009339
  44       0.00020850
  45     -15.46415268
  46       0.00000000
  47      -0.00000000
  48       4.36098257
  49      -0.00000000
  50      -0.00000000
  51      -1.64150438
  52      -0.00000000
  53      -0.00000000
  54       0.71604746
  55       0.00000000
  56       0.00000000
  57       3.18668860
  58      -0.06932304
  59      -0.06932304
  60      -0.00000000
  61      -0.00000000
  62       0.00000000
  63      -1.75222413
  64      -0.33671488
  65      -0.33671488
  66       0.00000000
  67       0.00000000
  68      -0.00000000
Ene=     2.26792E-02
Spin= Alpha
Occup=   0.0000000000
   1       0.06142352
   2       0.25205969
   3      18.09803452
   4      -3.22638740
   5       0.77302524
   6      -0.10944521
   7       0.05041751
   8      -0.02151155
   9       0.00163281
  10      -0.00042496
  11      -0.44941154
  12       0.00000000
  13       0.00000000
  14      -0.79673766
  15      -0.00000000
  16      -0.00000000
  17       8.65465329
  18       0.00000000
  19       0.00000000
  20      -2.16678359
  21       0.00000000
  22       0.00000000
  23      -0.96228222
  24      -0.53344070
  25      -0.53344070
  26       0.00000000
  27       0.00000000
  28      -0.00000000
  29      -1.52166215
  30      -2.03570438
  31      -2.03570438
  32      -0.00000000
  33      -0.00000000
  34       0.00000000
  35      -0.06142352
  36      -0.25205969
  37     -18.09803452
  38       3.22638740
  39      -0.77302524
  40       0.10944521
  41      -0.05041751
  42       0.02151155
  43      -0.00163281
  44       0.00042496
  45      -0.44941154
  46      -0.00000000
  47      -0.00000000
  48      -0.79673766
  49       0.00000000
  50       0.00000000
  51       8.65465329
  52      -0.00000000
  53      -0.00000000
  54      -2.16678359
  55      -0.00000000
  56      -0.00000000
  57       0.96228222
  58       0.53344070
  59       0.53344070
  60       0.00000000
  61       0.00000000
  62      -0.00000000
  63       1.52166215
  64       2.03570438
  65       2.03570438
  66      -0.00000000
  67      -0.00000000
  68      -0.00000000
Ene=     2.82660E-02
Spin= Alpha
Occup=   0.0000000000
   1       4.66758154
   2       1.40463132
   3      -4.67797101
   4       2.24768141
   5      -0.56505676
   6      -0.13673297
   7      -0.03046118
   8       0.03362252
   9       0.00394812
  10      -0.00025125
  11      -5.88619479
  12       0.00000000