[Molden Format]
[Title]
 Molden2AIM, Version 3.1.0 (02/25/2015)           Time: Thu Oct 17 19:54:42 2024

[Atoms] AU
E+       1       4     0.00000000     0.00000000     0.00000000
E+       2       4    36.20000000     0.00000000     0.00000000
[GTO]
    1 0
 S   1 1.0
    0.1000000000D-03      0.1000000000D+01
 S   1 1.0
    0.3000000000D-03      0.1000000000D+01
 S   1 1.0
    0.9000000000D-03      0.1000000000D+01
 S   1 1.0
    0.2700000000D-02      0.1000000000D+01
 S   1 1.0
    0.8100000000D-02      0.1000000000D+01
 S   1 1.0
    0.2430000000D-01      0.1000000000D+01
 S   1 1.0
    0.7290000000D-01      0.1000000000D+01
 S   1 1.0
    0.2187000000D+00      0.1000000000D+01
 S   1 1.0
    0.6561000000D+00      0.1000000000D+01
 S   1 1.0
    0.1968300000D+01      0.1000000000D+01
 P   1 1.0
    0.1000000000D-03      0.1000000000D+01
 P   1 1.0
    0.3000000000D-03      0.1000000000D+01
 P   1 1.0
    0.9000000000D-03      0.1000000000D+01
 P   1 1.0
    0.2700000000D-02      0.1000000000D+01
 D   1 1.0
    0.1000000000D-03      0.1000000000D+01
 D   1 1.0
    0.3000000000D-03      0.1000000000D+01

    2 0
 S   1 1.0
    0.1000000000D-03      0.1000000000D+01
 S   1 1.0
    0.3000000000D-03      0.1000000000D+01
 S   1 1.0
    0.9000000000D-03      0.1000000000D+01
 S   1 1.0
    0.2700000000D-02      0.1000000000D+01
 S   1 1.0
    0.8100000000D-02      0.1000000000D+01
 S   1 1.0
    0.2430000000D-01      0.1000000000D+01
 S   1 1.0
    0.7290000000D-01      0.1000000000D+01
 S   1 1.0
    0.2187000000D+00      0.1000000000D+01
 S   1 1.0
    0.6561000000D+00      0.1000000000D+01
 S   1 1.0
    0.1968300000D+01      0.1000000000D+01
 P   1 1.0
    0.1000000000D-03      0.1000000000D+01
 P   1 1.0
    0.3000000000D-03      0.1000000000D+01
 P   1 1.0
    0.9000000000D-03      0.1000000000D+01
 P   1 1.0
    0.2700000000D-02      0.1000000000D+01
 D   1 1.0
    0.1000000000D-03      0.1000000000D+01
 D   1 1.0
    0.3000000000D-03      0.1000000000D+01


[MO]
 Ene=         -0.00388802
 Spin= Alpha
 Occup=        1.00000000
    1       -0.0564922500
    2        0.0466824100
    3        0.0065267100
    4        0.2097170600
    5        0.2907466700
    6        0.1949810800
    7        0.1214346100
    8       -0.0980597100
    9       -0.0066899700
   10        0.0000917500
   11        0.1880926900
   12        0.0000000000
   13       -0.0000000000
   14       -0.0643100000
   15        0.0000000000
   16        0.0000000000
   17        0.0436175700
   18       -0.0000000000
   19       -0.0000000000
   20        0.0051859100
   21        0.0000000000
   22       -0.0000000000
   23        0.0587065900
   24       -0.0017580700
   25       -0.0017580700
   26       -0.0000000000
   27       -0.0000000000
   28        0.0000000000
   29       -0.0348930600
   30       -0.0072590400
   31       -0.0072590400
   32        0.0000000000
   33        0.0000000000
   34       -0.0000000000
   35       -0.0564922500
   36        0.0466824100
   37        0.0065267100
   38        0.2097170600
   39        0.2907466700
   40        0.1949810800
   41        0.1214346100
   42       -0.0980597100
   43       -0.0066899700
   44        0.0000917500
   45       -0.1880926900
   46       -0.0000000000
   47        0.0000000000
   48        0.0643100000
   49       -0.0000000000
   50       -0.0000000000
   51       -0.0436175700
   52        0.0000000000
   53        0.0000000000
   54       -0.0051859100
   55       -0.0000000000
   56       -0.0000000000
   57        0.0587065900
   58       -0.0017580700
   59       -0.0017580700
   60        0.0000000000
   61       -0.0000000000
   62       -0.0000000000
   63       -0.0348930600
   64       -0.0072590400
   65       -0.0072590400
   66        0.0000000000
   67        0.0000000000
   68        0.0000000000
 Ene=         -0.00350220
 Spin= Alpha
 Occup=        0.00000000
    1       -0.0013906400
    2       -0.0059489900
    3       -0.0206259500
    4       -0.2790527700
    5       -0.2817934800
    6       -0.2135019000
    7       -0.1237304500
    8        0.1014827000
    9        0.0072147000
   10       -0.0001362700
   11        0.0065625300
   12        0.0000000000
   13        0.0000000000
   14        0.0138727100
   15       -0.0000000000
   16       -0.0000000000
   17       -0.0470856700
   18       -0.0000000000
   19        0.0000000000
   20       -0.0296440500
   21        0.0000000000
   22       -0.0000000000
   23        0.0101118600
   24        0.0041412000
   25        0.0041412000
   26        0.0000000000
   27        0.0000000000
   28       -0.0000000000
   29        0.0173319500
   30        0.0231649200
   31        0.0231649200
   32       -0.0000000000
   33       -0.0000000000
   34        0.0000000000
   35        0.0013906400
   36        0.0059489900
   37        0.0206259500
   38        0.2790527700
   39        0.2817934800
   40        0.2135019000
   41        0.1237304500
   42       -0.1014827000
   43       -0.0072147000
   44        0.0001362700
   45        0.0065625300
   46       -0.0000000000
   47       -0.0000000000
   48        0.0138727100
   49        0.0000000000
   50        0.0000000000
   51       -0.0470856700
   52        0.0000000000
   53       -0.0000000000
   54       -0.0296440500
   55       -0.0000000000
   56        0.0000000000
   57       -0.0101118600
   58       -0.0041412000
   59       -0.0041412000
   60        0.0000000000
   61        0.0000000000
   62        0.0000000000
   63       -0.0173319500
   64       -0.0231649200
   65       -0.0231649200
   66       -0.0000000000
   67       -0.0000000000
   68       -0.0000000000
 Ene=          0.00416906
 Spin= Alpha
 Occup=        0.00000000
    1       -0.6941514400
    2       -0.0545879800
    3        1.0366392900
    4       -0.6949377700
    5       -0.0530448700
    6       -0.1119264900
    7       -0.0367037000
    8        0.0349243600
    9        0.0033507000
   10       -0.0001669600
   11        1.4351460000
   12        0.0000000000
   13       -0.0000000000
   14       -0.4504105000
   15        0.0000000000
   16        0.0000000000
   17        0.4794604000
   18       -0.0000000000
   19       -0.0000000000
   20       -0.0479600200
   21        0.0000000000
   22        0.0000000000
   23        0.4808039400
   24        0.0252094400
   25        0.0252094400
   26        0.0000000000
   27       -0.0000000000
   28        0.0000000000
   29       -0.0812940500
   30        0.0870186800
   31        0.0870186800
   32        0.0000000000
   33        0.0000000000
   34        0.0000000000
   35       -0.6941514400
   36       -0.0545879800
   37        1.0366392900
   38       -0.6949377700
   39       -0.0530448700
   40       -0.1119264900
   41       -0.0367037000
   42        0.0349243600
   43        0.0033507000
   44       -0.0001669600
   45       -1.4351460000
   46       -0.0000000000
   47        0.0000000000
   48        0.4504105000
   49       -0.0000000000
   50       -0.0000000000
   51       -0.4794604000
   52        0.0000000000
   53        0.0000000000
   54        0.0479600200
   55       -0.0000000000
   56       -0.0000000000
   57        0.4808039400
   58        0.0252094400
   59        0.0252094400
   60        0.0000000000
   61       -0.0000000000
   62       -0.0000000000
   63       -0.0812940500
   64        0.0870186800
   65        0.0870186800
   66        0.0000000000
   67        0.0000000000
   68       -0.0000000000
 Ene=          0.00592250
 Spin= Alpha
 Occup=        0.00000000
    1       -0.0000000000
    2       -0.0000000000
    3        0.0000000000
    4       -0.0000000000
    5        0.0000000000
    6        0.0000000000
    7       -0.0000000000
    8       -0.0000000000
    9        0.0000000000
   10       -0.0000000000
   11        0.0000000000
   12       -0.0257644400
   13       -0.0080923600
   14        0.0000000000
   15        0.0809368300
   16        0.0254214800
   17        0.0000000000
   18       -0.2846094600
   19       -0.0893931100
   20       -0.0000000000
   21       -0.3816526700
   22       -0.1198734500
   23        0.0000000000
   24       -0.0000000000
   25        0.0000000000
   26        0.0066750000
   27        0.0020965500
   28        0.0000000000
   29        0.0000000000
   30       -0.0000000000
   31       -0.0000000000
   32       -0.0309948000
   33       -0.0097351700
   34       -0.0000000000
   35       -0.0000000000
   36       -0.0000000000
   37       -0.0000000000
   38        0.0000000000
   39        0.0000000000
   40        0.0000000000
   41       -0.0000000000
   42        0.0000000000
   43       -0.0000000000
   44        0.0000000000
   45       -0.0000000000
   46       -0.0257644400
   47       -0.0080923600
   48       -0.0000000000
   49        0.0809368300
   50        0.0254214800
   51       -0.0000000000
   52       -0.2846094600
   53       -0.0893931100
   54        0.0000000000
   55       -0.3816526700
   56       -0.1198734500
   57        0.0000000000
   58       -0.0000000000
   59       -0.0000000000
   60       -0.0066750000
   61       -0.0020965500
   62       -0.0000000000
   63        0.0000000000
   64       -0.0000000000
   65       -0.0000000000
   66        0.0309948000
   67        0.0097351700
   68        0.0000000000
 Ene=          0.00592250
 Spin= Alpha
 Occup=        0.00000000
    1       -0.0000000000
    2       -0.0000000000
    3        0.0000000000
    4       -0.0000000000
    5       -0.0000000000
    6       -0.0000000000
    7        0.0000000000
    8        0.0000000000
    9       -0.0000000000
   10       -0.0000000000
   11        0.0000000000
   12       -0.0080923600
   13        0.0257644400
   14       -0.0000000000
   15        0.0254214800
   16       -0.0809368300
   17        0.0000000000
   18       -0.0893931100
   19        0.2846094600
   20        0.0000000000
   21       -0.1198734500
   22        0.3816526700
   23        0.0000000000
   24        0.0000000000
   25        0.0000000000
   26        0.0020965500
   27       -0.0066750000
   28       -0.0000000000
   29        0.0000000000
   30        0.0000000000
   31        0.0000000000
   32       -0.0097351700
   33        0.0309948000
   34        0.0000000000
   35       -0.0000000000
   36       -0.0000000000
   37       -0.0000000000
   38        0.0000000000
   39       -0.0000000000
   40        0.0000000000
   41       -0.0000000000
   42        0.0000000000
   43       -0.0000000000
   44       -0.0000000000
   45       -0.0000000000
   46       -0.0080923600
   47        0.0257644400
   48        0.0000000000
   49        0.0254214800
   50       -0.0809368300
   51        0.0000000000
   52       -0.0893931100
   53        0.2846094600
   54       -0.0000000000
   55       -0.1198734500
   56        0.3816526700
   57        0.0000000000
   58       -0.0000000000
   59       -0.0000000000
   60       -0.0020965500
   61        0.0066750000
   62        0.0000000000
   63       -0.0000000000
   64       -0.0000000000
   65        0.0000000000
   66        0.0097351700
   67       -0.0309948000
   68       -0.0000000000
 Ene=          0.00832661
 Spin= Alpha
 Occup=        0.00000000
    1        0.0000000000
    2        0.0000000000
    3        0.0000000000
    4       -0.0000000000
    5        0.0000000000
    6       -0.0000000000
    7        0.0000000000
    8       -0.0000000000
    9        0.0000000000
   10       -0.0000000000
   11        0.0000000000
   12        0.2770908600
   13       -0.3342000400
   14        0.0000000000
   15       -0.0198535800
   16        0.0239454500
   17        0.0000000000
   18        0.0604229100
   19       -0.0728762400
   20        0.0000000000
   21        0.4676632100
   22       -0.5640498800
   23       -0.0000000000
   24       -0.0000000000
   25       -0.0000000000
   26        0.0482948600
   27       -0.0582485600
   28        0.0000000000
   29        0.0000000000
   30       -0.0000000000
   31       -0.0000000000
   32        0.0037210000
   33       -0.0044879100
   34       -0.0000000000
   35       -0.0000000000
   36       -0.0000000000
   37       -0.0000000000
   38        0.0000000000
   39       -0.0000000000
   40        0.0000000000
   41        0.0000000000
   42       -0.0000000000
   43        0.0000000000
   44       -0.0000000000
   45        0.0000000000
   46       -0.2770908600
   47        0.3342000400
   48        0.0000000000
   49        0.0198535800
   50       -0.0239454500
   51        0.0000000000
   52       -0.0604229100
   53        0.0728762400
   54       -0.0000000000
   55       -0.4676632100
   56        0.5640498800
   57       -0.0000000000
   58       -0.0000000000
   59        0.0000000000
   60        0.0482948600
   61       -0.0582485600
   62       -0.0000000000
   63       -0.0000000000
   64       -0.0000000000
   65       -0.0000000000
   66        0.0037210000
   67       -0.0044879100
   68        0.0000000000
 Ene=          0.00832661
 Spin= Alpha
 Occup=        0.00000000
    1       -0.0000000000
    2       -0.0000000000
    3       -0.0000000000
    4        0.0000000000
    5        0.0000000000
    6       -0.0000000000
    7       -0.0000000000
    8        0.0000000000
    9       -0.0000000000
   10        0.0000000000
   11       -0.0000000000
   12       -0.3342000400
   13       -0.2770908600
   14       -0.0000000000
   15        0.0239454500
   16        0.0198535800
   17       -0.0000000000
   18       -0.0728762400
   19       -0.0604229100
   20        0.0000000000
   21       -0.5640498800
   22       -0.4676632100
   23       -0.0000000000
   24        0.0000000000
   25       -0.0000000000
   26       -0.0582485600
   27       -0.0482948600
   28       -0.0000000000
   29       -0.0000000000
   30        0.0000000000
   31        0.0000000000
   32       -0.0044879100
   33       -0.0037210000
   34       -0.0000000000
   35        0.0000000000
   36        0.0000000000
   37        0.0000000000
   38        0.0000000000
   39       -0.0000000000
   40       -0.0000000000
   41       -0.0000000000
   42       -0.0000000000
   43        0.0000000000
   44       -0.0000000000
   45        0.0000000000
   46        0.3342000400
   47        0.2770908600
   48       -0.0000000000
   49       -0.0239454500
   50       -0.0198535800
   51        0.0000000000
   52        0.0728762400
   53        0.0604229100
   54       -0.0000000000
   55        0.5640498800
   56        0.4676632100
   57       -0.0000000000
   58        0.0000000000
   59        0.0000000000
   60       -0.0582485600
   61       -0.0482948600
   62        0.0000000000
   63        0.0000000000
   64        0.0000000000
   65       -0.0000000000
   66       -0.0044879100
   67       -0.0037210000
   68        0.0000000000
 Ene=          0.00917391
 Spin= Alpha
 Occup=        0.00000000
    1       -0.0270055300
    2        0.0051772200
    3        2.7554326400
    4        0.1787073500
    5       -0.5637668400
    6       -0.0182913900
    7       -0.0805720000
    8        0.0529545500
    9        0.0016324600
   10        0.0002424200
   11        0.1358691300
   12       -0.0000000000
   13       -0.0000000000
   14       -0.0287370200
   15        0.0000000000
   16        0.0000000000
   17        1.0577849700
   18       -0.0000000000
   19       -0.0000000000
   20        0.2998810500
   21        0.0000000000
   22        0.0000000000
   23        0.1031227400
   24        0.1837376000
   25        0.1837376000
   26       -0.0000000000
   27       -0.0000000000
   28        0.0000000000
   29        0.2615758300
   30        0.1151859700
   31        0.1151859700
   32        0.0000000000
   33        0.0000000000
   34       -0.0000000000
   35        0.0270055300
   36       -0.0051772200
   37       -2.7554326400
   38       -0.1787073500
   39        0.5637668400
   40        0.0182913900
   41        0.0805720000
   42       -0.0529545500
   43       -0.0016324600
   44       -0.0002424200
   45        0.1358691300
   46        0.0000000000
   47        0.0000000000
   48       -0.0287370200
   49       -0.0000000000
   50       -0.0000000000
   51        1.0577849700
   52        0.0000000000
   53        0.0000000000
   54        0.2998810500
   55       -0.0000000000
   56       -0.0000000000
   57       -0.1031227400
   58       -0.1837376000
   59       -0.1837376000
   60       -0.0000000000
   61       -0.0000000000
   62        0.0000000000
   63       -0.2615758300
   64       -0.1151859700
   65       -0.1151859700
   66        0.0000000000
   67        0.0000000000
   68       -0.0000000000
 Ene=          0.00956106
 Spin= Alpha
 Occup=        0.00000000
    1       -0.3707739900
    2        0.2748871500
    3        0.4255423800
    4       -0.8760387500
    5        0.4600944100
    6       -0.0517051700
    7        0.0530443100
    8       -0.0283556400
    9        0.0004914700
   10       -0.0003242800
   11        1.4241201500
   12        0.0000000000
   13       -0.0000000000
   14       -0.3918292500
   15        0.0000000000
   16        0.0000000000
   17        0.4747045800
   18       -0.0000000000
   19       -0.0000000000
   20       -0.7196978700
   21       -0.0000000000
   22        0.0000000000
   23        0.4331729700
   24       -0.0215367600
   25       -0.0215367600
   26        0.0000000000
   27       -0.0000000000
   28       -0.0000000000
   29       -0.2185531200
   30       -0.0737636400
   31       -0.0737636400
   32        0.0000000000
   33        0.0000000000
   34        0.0000000000
   35       -0.3707739900
   36        0.2748871500
   37        0.4255423800
   38       -0.8760387500
   39        0.4600944100
   40       -0.0517051700
   41        0.0530443100
   42       -0.0283556400
   43        0.0004914700
   44       -0.0003242800
   45       -1.4241201500
   46       -0.0000000000
   47        0.0000000000
   48        0.3918292500
   49       -0.0000000000
   50       -0.0000000000
   51       -0.4747045800
   52        0.0000000000
   53        0.0000000000
   54        0.7196978700
   55        0.0000000000
   56        0.0000000000
   57        0.4331729700
   58       -0.0215367600
   59       -0.0215367600
   60        0.0000000000
   61       -0.0000000000
   62        0.0000000000
   63       -0.2185531200
   64       -0.0737636400
   65       -0.0737636400
   66        0.0000000000
   67        0.0000000000
   68       -0.0000000000
 Ene=          0.01311780
 Spin= Alpha
 Occup=        0.00000000
    1       -0.0000000000
    2       -0.0000000000
    3        0.0000000000
    4        0.0000000000
    5       -0.0000000000
    6       -0.0000000000
    7       -0.0000000000
    8        0.0000000000
    9        0.0000000000
   10       -0.0000000000
   11        0.0000000000
   12        0.0062040000
   13        0.0683970400
   14       -0.0000000000
   15       -0.0205681500
   16       -0.2267569300
   17       -0.0000000000
   18        0.0878132300
   19        0.9681112400
   20       -0.0000000000
   21       -0.0844918600
   22       -0.9314942700
   23        0.0000000000
   24        0.0000000000
   25        0.0000000000
   26       -0.0008722600
   27       -0.0096163200
   28       -0.0000000000
   29        0.0000000000
   30        0.0000000000
   31        0.0000000000
   32        0.0065315600
   33        0.0720082500
   34        0.0000000000
   35       -0.0000000000
   36       -0.0000000000
   37        0.0000000000
   38       -0.0000000000
   39       -0.0000000000
   40       -0.0000000000
   41       -0.0000000000
   42       -0.0000000000
   43        0.0000000000
   44        0.0000000000
   45       -0.0000000000
   46        0.0062040000
   47        0.0683970400
   48       -0.0000000000
   49       -0.0205681500
   50       -0.2267569300
   51       -0.0000000000
   52        0.0878132300
   53        0.9681112400
   54       -0.0000000000
   55       -0.0844918600
   56       -0.9314942700
   57        0.0000000000
   58       -0.0000000000
   59       -0.0000000000
   60        0.0008722600
   61        0.0096163200
   62        0.0000000000
   63        0.0000000000
   64        0.0000000000
   65        0.0000000000
   66       -0.0065315600
   67       -0.0720082500
   68       -0.0000000000
 Ene=          0.01311780
 Spin= Alpha
 Occup=        0.00000000
    1       -0.0000000000
    2        0.0000000000
    3       -0.0000000000
    4        0.0000000000
    5       -0.0000000000
    6       -0.0000000000
    7       -0.0000000000
    8       -0.0000000000
    9        0.0000000000
   10       -0.0000000000
   11        0.0000000000
   12        0.0683970400
   13       -0.0062040000
   14       -0.0000000000
   15       -0.2267569300
   16        0.0205681500
   17        0.0000000000
   18        0.9681112400
   19       -0.0878132300
   20       -0.0000000000
   21       -0.9314942700
   22        0.0844918600
   23        0.0000000000
   24       -0.0000000000
   25       -0.0000000000
   26       -0.0096163200
   27        0.0008722600
   28        0.0000000000
   29       -0.0000000000
   30       -0.0000000000
   31       -0.0000000000
   32        0.0720082500
   33       -0.0065315600
   34        0.0000000000
   35       -0.0000000000
   36        0.0000000000
   37       -0.0000000000
   38        0.0000000000
   39       -0.0000000000
   40        0.0000000000
   41       -0.0000000000
   42       -0.0000000000
   43        0.0000000000
   44       -0.0000000000
   45       -0.0000000000
   46        0.0683970400
   47       -0.0062040000
   48        0.0000000000
   49       -0.2267569300
   50        0.0205681500
   51       -0.0000000000
   52        0.9681112400
   53       -0.0878132300
   54       -0.0000000000
   55       -0.9314942700
   56        0.0844918600
   57        0.0000000000
   58       -0.0000000000
   59        0.0000000000
   60        0.0096163200
   61       -0.0008722600
   62       -0.0000000000
   63        0.0000000000
   64       -0.0000000000
   65       -0.0000000000
   66       -0.0720082500
   67        0.0065315600
   68       -0.0000000000
 Ene=          0.01326550
 Spin= Alpha
 Occup=        0.00000000
    1        0.2342682300
    2       -0.1706783600
    3       -0.3093577500
    4        1.5660629800
    5       -0.9389351200
    6       -0.0013289300
    7       -0.1048496500
    8        0.0666580300
    9        0.0016508500
   10        0.0003654400
   11       -1.0611704300
   12        0.0000000000
   13        0.0000000000
   14        0.1716528600
   15        0.0000000000
   16       -0.0000000000
   17       -0.3767954100
   18       -0.0000000000
   19        0.0000000000
   20       -0.1317725400
   21        0.0000000000
   22       -0.0000000000
   23       -0.3133513700
   24        0.0212129100
   25        0.0212129100
   26        0.0000000000
   27        0.0000000000
   28        0.0000000000
   29        0.1091196400
   30        0.0772918100
   31        0.0772918100
   32        0.0000000000
   33       -0.0000000000
   34        0.0000000000
   35        0.2342682300
   36       -0.1706783600
   37       -0.3093577500
   38        1.5660629800
   39       -0.9389351200
   40       -0.0013289300
   41       -0.1048496500
   42        0.0666580300
   43        0.0016508500
   44        0.0003654400
   45        1.0611704300
   46       -0.0000000000
   47       -0.0000000000
   48       -0.1716528600
   49       -0.0000000000
   50        0.0000000000
   51        0.3767954100
   52       -0.0000000000
   53       -0.0000000000
   54        0.1317725400
   55       -0.0000000000
   56        0.0000000000
   57       -0.3133513700
   58        0.0212129100
   59        0.0212129100
   60        0.0000000000
   61        0.0000000000
   62       -0.0000000000
   63        0.1091196400
   64        0.0772918100
   65        0.0772918100
   66        0.0000000000
   67       -0.0000000000
   68        0.0000000000
 Ene=          0.01389440
 Spin= Alpha
 Occup=        0.00000000
    1        0.0157613500
    2        0.0276179200
    3       -0.6226849400
    4       -0.0197576600
    5        0.0289819700
    6       -0.0745825700
    7       -0.0040398900
    8        0.0100264700
    9        0.0018442100
   10       -0.0001713600
   11       -0.0769597100
   12        0.0000000000
   13        0.0000000000
   14       -0.0540227400
   15       -0.0000000000
   16        0.0000000000
   17       -0.0537575100
   18        0.0000000000
   19       -0.0000000000
   20       -1.1005408800
   21        0.0000000000
   22        0.0000000000
   23       -0.0859888400
   24       -0.0817407000
   25       -0.0817407000
   26        0.0000000000
   27        0.0000000000
   28       -0.0000000000
   29       -0.1656059100
   30       -0.1492091300
   31       -0.1492091300
   32       -0.0000000000
   33        0.0000000000
   34        0.0000000000
   35       -0.0157613500
   36       -0.0276179200
   37        0.6226849400
   38        0.0197576600
   39       -0.0289819700
   40        0.0745825700
   41        0.0040398900
   42       -0.0100264700
   43       -0.0018442100
   44        0.0001713600
   45       -0.0769597100
   46       -0.0000000000
   47       -0.0000000000
   48       -0.0540227400
   49        0.0000000000
   50       -0.0000000000
   51       -0.0537575100
   52       -0.0000000000
   53        0.0000000000
   54       -1.1005408800
   55        0.0000000000
   56        0.0000000000
   57        0.0859888400
   58        0.0817407000
   59        0.0817407000
   60        0.0000000000
   61        0.0000000000
   62        0.0000000000
   63        0.1656059100
   64        0.1492091300
   65        0.1492091300
   66       -0.0000000000
   67       -0.0000000000
   68       -0.0000000000
 Ene=          0.01791940
 Spin= Alpha
 Occup=        0.00000000
    1        0.0150272400
    2       -0.0505766900
    3       -4.7475649200
    4        2.8508770400
    5       -1.2611843100
    6        0.0694691000
    7       -0.1123788500
    8        0.0644157600
    9        0.0001775300
   10        0.0005568200
   11       -0.0798431200
   12        0.0000000000
   13        0.0000000000
   14        0.0946428500
   15       -0.0000000000
   16       -0.0000000000
   17       -1.9682674600
   18        0.0000000000
   19        0.0000000000
   20        0.3129936300
   21       -0.0000000000
   22       -0.0000000000
   23       -0.0141508000
   24       -0.1424968600
   25       -0.1424968600
   26        0.0000000000
   27        0.0000000000
   28       -0.0000000000
   29       -0.1531724000
   30        0.0494050600
   31        0.0494050600
   32       -0.0000000000
   33       -0.0000000000
   34       -0.0000000000
   35       -0.0150272400
   36        0.0505766900
   37        4.7475649200
   38       -2.8508770400
   39        1.2611843100
   40       -0.0694691000
   41        0.1123788500
   42       -0.0644157600
   43       -0.0001775300
   44       -0.0005568200
   45       -0.0798431200
   46       -0.0000000000
   47       -0.0000000000
   48        0.0946428500
   49        0.0000000000
   50        0.0000000000
   51       -1.9682674600
   52       -0.0000000000
   53       -0.0000000000
   54        0.3129936300
   55        0.0000000000
   56        0.0000000000
   57        0.0141508000
   58        0.1424968600
   59        0.1424968600
   60        0.0000000000
   61        0.0000000000
   62        0.0000000000
   63        0.1531724000
   64       -0.0494050600
   65       -0.0494050600
   66       -0.0000000000
   67       -0.0000000000
   68        0.0000000000
 Ene=          0.01939930
 Spin= Alpha
 Occup=        0.00000000
    1       -0.0000000000
    2       -0.0000000000
    3       -0.0000000000
    4        0.0000000000
    5       -0.0000000000
    6        0.0000000000
    7       -0.0000000000
    8        0.0000000000
    9        0.0000000000
   10        0.0000000000
   11       -0.0000000000
   12       -7.8889113400
   13       -0.5684189400
   14       -0.0000000000
   15        1.7309989400
   16        0.1247234900
   17        0.0000000000
   18       -1.7676757600
   19       -0.1273661700
   20       -0.0000000000
   21        0.8402125700
   22        0.0605397500
   23        0.0000000000
   24       -0.0000000000
   25       -0.0000000000
   26       -1.4094530700
   27       -0.1015551800
   28       -0.0000000000
   29       -0.0000000000
   30       -0.0000000000
   31       -0.0000000000
   32        0.3487964600
   33        0.0251318000
   34        0.0000000000
   35        0.0000000000
   36        0.0000000000
   37       -0.0000000000
   38        0.0000000000
   39        0.0000000000
   40       -0.0000000000
   41       -0.0000000000
   42        0.0000000000
   43       -0.0000000000
   44        0.0000000000
   45       -0.0000000000
   46        7.8889113400
   47        0.5684189400
   48       -0.0000000000
   49       -1.7309989400
   50       -0.1247234900
   51       -0.0000000000
   52        1.7676757600
   53        0.1273661700
   54        0.0000000000
   55       -0.8402125700
   56       -0.0605397500
   57        0.0000000000
   58       -0.0000000000
   59       -0.0000000000
   60       -1.4094530700
   61       -0.1015551800
   62        0.0000000000
   63        0.0000000000
   64       -0.0000000000
   65       -0.0000000000
   66        0.3487964600
   67        0.0251318000
   68       -0.0000000000
 Ene=          0.01939930
 Spin= Alpha
 Occup=        0.00000000
    1       -0.0000000000
    2        0.0000000000
    3       -0.0000000000
    4        0.0000000000
    5       -0.0000000000
    6       -0.0000000000
    7       -0.0000000000
    8        0.0000000000
    9        0.0000000000
   10        0.0000000000
   11        0.0000000000
   12        0.5684189400
   13       -7.8889113400
   14        0.0000000000
   15       -0.1247234900
   16        1.7309989400