[Molden Format]
[Atoms] AU
E+       1       4     0.00000000     0.00000000     0.00000000
E+       2       4    56.20000000     0.00000000     0.00000000
[GTO]
  1 0
s  1 1.00
   1.0000000000E-04   1.0000000000E+00
s  1 1.00
   3.0000000000E-04   1.0000000000E+00
s  1 1.00
   9.0000000000E-04   1.0000000000E+00
s  1 1.00
   2.7000000000E-03   1.0000000000E+00
s  1 1.00
   8.1000000000E-03   1.0000000000E+00
s  1 1.00
   2.4300000000E-02   1.0000000000E+00
s  1 1.00
   7.2900000000E-02   1.0000000000E+00
s  1 1.00
   2.1870000000E-01   1.0000000000E+00
s  1 1.00
   6.5610000000E-01   1.0000000000E+00
s  1 1.00
   1.9683000000E+00   1.0000000000E+00
p  1 1.00
   1.0000000000E-04   1.0000000000E+00
p  1 1.00
   3.0000000000E-04   1.0000000000E+00
p  1 1.00
   9.0000000000E-04   1.0000000000E+00
p  1 1.00
   2.7000000000E-03   1.0000000000E+00
d  1 1.00
   1.0000000000E-04   1.0000000000E+00
d  1 1.00
   3.0000000000E-04   1.0000000000E+00
 
  2 0
s  1 1.00
   1.0000000000E-04   1.0000000000E+00
s  1 1.00
   3.0000000000E-04   1.0000000000E+00
s  1 1.00
   9.0000000000E-04   1.0000000000E+00
s  1 1.00
   2.7000000000E-03   1.0000000000E+00
s  1 1.00
   8.1000000000E-03   1.0000000000E+00
s  1 1.00
   2.4300000000E-02   1.0000000000E+00
s  1 1.00
   7.2900000000E-02   1.0000000000E+00
s  1 1.00
   2.1870000000E-01   1.0000000000E+00
s  1 1.00
   6.5610000000E-01   1.0000000000E+00
s  1 1.00
   1.9683000000E+00   1.0000000000E+00
p  1 1.00
   1.0000000000E-04   1.0000000000E+00
p  1 1.00
   3.0000000000E-04   1.0000000000E+00
p  1 1.00
   9.0000000000E-04   1.0000000000E+00
p  1 1.00
   2.7000000000E-03   1.0000000000E+00
d  1 1.00
   1.0000000000E-04   1.0000000000E+00
d  1 1.00
   3.0000000000E-04   1.0000000000E+00
 
 
[MO]
Ene=     3.66116E-03
Spin= Alpha
Occup=   1.0000000000
   1      -0.37235319
   2      -0.19158463
   3       0.58352589
   4      -0.02574477
   5       0.14148435
   6       0.09667175
   7       0.06744901
   8      -0.05335719
   9      -0.00340939
  10       0.00001895
  11       0.36861033
  12       0.00000000
  13       0.00000000
  14      -0.13511152
  15       0.00000000
  16       0.00000000
  17       0.24181963
  18      -0.00000000
  19      -0.00000000
  20       0.15588860
  21       0.00000000
  22       0.00000000
  23       0.20014910
  24       0.02467015
  25       0.02467015
  26      -0.00000000
  27       0.00000000
  28       0.00000000
  29       0.06842310
  30       0.08357723
  31       0.08357723
  32       0.00000000
  33       0.00000000
  34      -0.00000000
  35      -0.37235319
  36      -0.19158463
  37       0.58352589
  38      -0.02574477
  39       0.14148435
  40       0.09667175
  41       0.06744901
  42      -0.05335719
  43      -0.00340939
  44       0.00001895
  45      -0.36861033
  46       0.00000000
  47      -0.00000000
  48       0.13511152
  49      -0.00000000
  50      -0.00000000
  51      -0.24181963
  52       0.00000000
  53       0.00000000
  54      -0.15588860
  55       0.00000000
  56      -0.00000000
  57       0.20014910
  58       0.02467015
  59       0.02467015
  60       0.00000000
  61       0.00000000
  62      -0.00000000
  63       0.06842310
  64       0.08357723
  65       0.08357723
  66       0.00000000
  67       0.00000000
  68       0.00000000
Ene=     5.02981E-03
Spin= Alpha
Occup=   0.0000000000
   1      -0.02006678
   2       0.96153801
   3       0.02924751
   4       0.41433330
   5       0.11553794
   6       0.19308001
   7       0.09425671
   8      -0.08070457
   9      -0.00629912
  10       0.00019140
  11       0.03430816
  12      -0.00000000
  13       0.00000000
  14       0.62446950
  15       0.00000000
  16      -0.00000000
  17      -0.13144290
  18       0.00000000
  19       0.00000000
  20       0.30250745
  21      -0.00000000
  22       0.00000000
  23       0.02724712
  24       0.02219578
  25       0.02219578
  26      -0.00000000
  27       0.00000000
  28      -0.00000000
  29       0.23918886
  30       0.06078324
  31       0.06078324
  32       0.00000000
  33      -0.00000000
  34       0.00000000
  35       0.02006678
  36      -0.96153801
  37      -0.02924751
  38      -0.41433330
  39      -0.11553794
  40      -0.19308001
  41      -0.09425671
  42       0.08070457
  43       0.00629912
  44      -0.00019140
  45       0.03430816
  46       0.00000000
  47      -0.00000000
  48       0.62446950
  49      -0.00000000
  50       0.00000000
  51      -0.13144290
  52       0.00000000
  53       0.00000000
  54       0.30250745
  55      -0.00000000
  56      -0.00000000
  57      -0.02724712
  58      -0.02219578
  59      -0.02219578
  60      -0.00000000
  61       0.00000000
  62       0.00000000
  63      -0.23918886
  64      -0.06078324
  65      -0.06078324
  66       0.00000000
  67      -0.00000000
  68      -0.00000000
Ene=     7.40342E-03
Spin= Alpha
Occup=   0.0000000000
   1       0.49426357
   2       0.11461594
   3      -0.79881327
   4       0.74699450
   5       0.06853610
   6       0.20712196
   7       0.08169328
   8      -0.07405376
   9      -0.00649848
  10       0.00027614
  11      -0.69449213
  12      -0.00000000
  13      -0.00000000
  14       0.26703765
  15       0.00000000
  16       0.00000000
  17      -0.53073854
  18      -0.00000000
  19      -0.00000000
  20       0.26834325
  21       0.00000000
  22       0.00000000
  23      -0.35172761
  24      -0.01594493
  25      -0.01594493
  26      -0.00000000
  27      -0.00000000
  28      -0.00000000
  29      -0.00465437
  30      -0.05204006
  31      -0.05204006
  32       0.00000000
  33       0.00000000
  34       0.00000000
  35       0.49426357
  36       0.11461594
  37      -0.79881327
  38       0.74699450
  39       0.06853610
  40       0.20712196
  41       0.08169328
  42      -0.07405376
  43      -0.00649848
  44       0.00027614
  45       0.69449213
  46       0.00000000
  47       0.00000000
  48      -0.26703765
  49      -0.00000000
  50      -0.00000000
  51       0.53073854
  52       0.00000000
  53       0.00000000
  54      -0.26834325
  55      -0.00000000
  56      -0.00000000
  57      -0.35172761
  58      -0.01594493
  59      -0.01594493
  60      -0.00000000
  61      -0.00000000
  62       0.00000000
  63      -0.00465437
  64      -0.05204006
  65      -0.05204006
  66       0.00000000
  67       0.00000000
  68      -0.00000000
Ene=     1.38083E-02
Spin= Alpha
Occup=   0.0000000000
   1       0.01322362
   2       2.60949586
   3      -0.86977583
   4      -0.18984931
   5       0.58070732
   6       0.08981763
   7       0.11074409
   8      -0.07989942
   9      -0.00388926
  10      -0.00015657
  11      -0.11018233
  12      -0.00000000
  13       0.00000000
  14       1.41965979
  15       0.00000000
  16      -0.00000000
  17      -0.27121484
  18       0.00000000
  19       0.00000000
  20      -0.38744193
  21      -0.00000000
  22      -0.00000000
  23      -0.09334350
  24      -0.07284595
  25      -0.07284595
  26      -0.00000000
  27       0.00000000
  28      -0.00000000
  29       0.27454788
  30      -0.13192072
  31      -0.13192072
  32      -0.00000000
  33       0.00000000
  34       0.00000000
  35      -0.01322362
  36      -2.60949586
  37       0.86977583
  38       0.18984931
  39      -0.58070732
  40      -0.08981763
  41      -0.11074409
  42       0.07989942
  43       0.00388926
  44       0.00015657
  45      -0.11018233
  46       0.00000000
  47      -0.00000000
  48       1.41965979
  49      -0.00000000
  50      -0.00000000
  51      -0.27121484
  52       0.00000000
  53       0.00000000
  54      -0.38744193
  55       0.00000000
  56      -0.00000000
  57       0.09334350
  58       0.07284595
  59       0.07284595
  60      -0.00000000
  61       0.00000000
  62       0.00000000
  63      -0.27454788
  64       0.13192072
  65       0.13192072
  66      -0.00000000
  67      -0.00000000
  68      -0.00000000
Ene=     1.58811E-02
Spin= Alpha
Occup=   0.0000000000
   1      -0.00000000
   2       0.00000000
   3      -0.00000000
   4       0.00000000
   5      -0.00000000
   6      -0.00000000
   7      -0.00000000
   8       0.00000000
   9      -0.00000000
  10       0.00000000
  11       0.00000000
  12       0.03629211
  13      -0.05232957
  14       0.00000000
  15      -0.09199410
  16       0.13264623
  17      -0.00000000
  18       0.33214619
  19      -0.47892136
  20       0.00000000
  21       0.09268414
  22      -0.13364120
  23       0.00000000
  24       0.00000000
  25       0.00000000
  26      -0.04379941
  27       0.06315433
  28      -0.00000000
  29       0.00000000
  30       0.00000000
  31       0.00000000
  32       0.07010200
  33      -0.10108003
  34       0.00000000
  35       0.00000000
  36      -0.00000000
  37       0.00000000
  38      -0.00000000
  39       0.00000000
  40      -0.00000000
  41       0.00000000
  42      -0.00000000
  43       0.00000000
  44      -0.00000000
  45       0.00000000
  46       0.03629211
  47      -0.05232957
  48       0.00000000
  49      -0.09199410
  50       0.13264623
  51      -0.00000000
  52       0.33214619
  53      -0.47892136
  54       0.00000000
  55       0.09268414
  56      -0.13364120
  57      -0.00000000
  58      -0.00000000
  59      -0.00000000
  60       0.04379941
  61      -0.06315433
  62       0.00000000
  63      -0.00000000
  64      -0.00000000
  65      -0.00000000
  66      -0.07010200
  67       0.10108003
  68      -0.00000000
Ene=     1.58811E-02
Spin= Alpha
Occup=   0.0000000000
   1      -0.00000000
   2       0.00000000
   3       0.00000000
   4       0.00000000
   5      -0.00000000
   6       0.00000000
   7      -0.00000000
   8       0.00000000
   9      -0.00000000
  10       0.00000000
  11      -0.00000000
  12       0.05232957
  13       0.03629211
  14       0.00000000
  15      -0.13264623
  16      -0.09199410
  17      -0.00000000
  18       0.47892136
  19       0.33214619
  20       0.00000000
  21       0.13364120
  22       0.09268414
  23       0.00000000
  24       0.00000000
  25       0.00000000
  26      -0.06315433
  27      -0.04379941
  28      -0.00000000
  29       0.00000000
  30       0.00000000
  31       0.00000000
  32       0.10108003
  33       0.07010200
  34       0.00000000
  35      -0.00000000
  36      -0.00000000
  37       0.00000000
  38       0.00000000
  39      -0.00000000
  40       0.00000000
  41      -0.00000000
  42       0.00000000
  43       0.00000000
  44      -0.00000000
  45       0.00000000
  46       0.05232957
  47       0.03629211
  48       0.00000000
  49      -0.13264623
  50      -0.09199410
  51       0.00000000
  52       0.47892136
  53       0.33214619
  54      -0.00000000
  55       0.13364120
  56       0.09268414
  57      -0.00000000
  58      -0.00000000
  59      -0.00000000
  60       0.06315433
  61       0.04379941
  62       0.00000000
  63      -0.00000000
  64       0.00000000
  65       0.00000000
  66      -0.10108003
  67      -0.07010200
  68      -0.00000000
Ene=     1.61946E-02
Spin= Alpha
Occup=   0.0000000000
   1       0.53939096
   2       0.43211779
   3      -0.04100275
   4      -1.13246358
   5       0.83790769
   6      -0.00385931
   7       0.11600583
   8      -0.07347309
   9      -0.00162529
  10      -0.00042466
  11       0.27306414
  12       0.00000000
  13       0.00000000
  14      -0.02961373
  15      -0.00000000
  16      -0.00000000
  17       0.51239059
  18       0.00000000
  19       0.00000000
  20      -0.78278298
  21       0.00000000
  22       0.00000000
  23       0.02393407
  24      -0.09938570
  25      -0.09938570
  26       0.00000000
  27       0.00000000
  28      -0.00000000
  29      -0.23313656
  30      -0.31718741
  31      -0.31718741
  32      -0.00000000
  33      -0.00000000
  34       0.00000000
  35       0.53939096
  36       0.43211779
  37      -0.04100275
  38      -1.13246358
  39       0.83790769
  40      -0.00385931
  41       0.11600583
  42      -0.07347309
  43      -0.00162529
  44      -0.00042466
  45      -0.27306414
  46      -0.00000000
  47      -0.00000000
  48       0.02961373
  49       0.00000000
  50       0.00000000
  51      -0.51239059
  52       0.00000000
  53       0.00000000
  54       0.78278298
  55       0.00000000
  56       0.00000000
  57       0.02393407
  58      -0.09938570
  59      -0.09938570
  60       0.00000000
  61       0.00000000
  62       0.00000000
  63      -0.23313656
  64      -0.31718741
  65      -0.31718741
  66      -0.00000000
  67      -0.00000000
  68      -0.00000000
Ene=     1.84661E-02
Spin= Alpha
Occup=   0.0000000000
   1       0.00000000
   2       0.00000000
   3      -0.00000000
   4       0.00000000
   5      -0.00000000
   6      -0.00000000
   7      -0.00000000
   8       0.00000000
   9      -0.00000000
  10       0.00000000
  11      -0.00000000
  12      -0.11635253
  13      -0.00688543
  14       0.00000000
  15      -0.00968275
  16      -0.00057300
  17      -0.00000000
  18      -0.09935410
  19      -0.00587950
  20       0.00000000
  21      -0.65303067
  22      -0.03864457
  23      -0.00000000
  24       0.00000000
  25       0.00000000
  26      -0.02247084
  27      -0.00132976
  28      -0.00000000
  29       0.00000000
  30       0.00000000
  31       0.00000000
  32      -0.04013060
  33      -0.00237482
  34       0.00000000
  35       0.00000000
  36      -0.00000000
  37       0.00000000
  38      -0.00000000
  39       0.00000000
  40      -0.00000000
  41       0.00000000
  42      -0.00000000
  43       0.00000000
  44      -0.00000000
  45       0.00000000
  46       0.11635253
  47       0.00688543
  48       0.00000000
  49       0.00968275
  50       0.00057300
  51      -0.00000000
  52       0.09935410
  53       0.00587950
  54       0.00000000
  55       0.65303067
  56       0.03864457
  57      -0.00000000
  58      -0.00000000
  59      -0.00000000
  60      -0.02247084
  61      -0.00132976
  62       0.00000000
  63      -0.00000000
  64      -0.00000000
  65      -0.00000000
  66      -0.04013060
  67      -0.00237482
  68      -0.00000000
Ene=     1.84661E-02
Spin= Alpha
Occup=   0.0000000000
   1       0.00000000
   2       0.00000000
   3       0.00000000
   4      -0.00000000
   5      -0.00000000
   6      -0.00000000
   7      -0.00000000
   8       0.00000000
   9      -0.00000000
  10       0.00000000
  11      -0.00000000
  12       0.00688543
  13      -0.11635253
  14       0.00000000
  15       0.00057300
  16      -0.00968275
  17       0.00000000
  18       0.00587950
  19      -0.09935410
  20      -0.00000000
  21       0.03864457
  22      -0.65303067
  23      -0.00000000
  24       0.00000000
  25       0.00000000
  26       0.00132976
  27      -0.02247084
  28       0.00000000
  29       0.00000000
  30       0.00000000
  31       0.00000000
  32       0.00237482
  33      -0.04013060
  34      -0.00000000
  35       0.00000000
  36      -0.00000000
  37      -0.00000000
  38       0.00000000
  39      -0.00000000
  40       0.00000000
  41      -0.00000000
  42       0.00000000
  43      -0.00000000
  44      -0.00000000
  45       0.00000000
  46      -0.00688543
  47       0.11635253
  48       0.00000000
  49      -0.00057300
  50       0.00968275
  51       0.00000000
  52      -0.00587950
  53       0.09935410
  54      -0.00000000
  55      -0.03864457
  56       0.65303067
  57      -0.00000000
  58      -0.00000000
  59      -0.00000000
  60       0.00132976
  61      -0.02247084
  62       0.00000000
  63      -0.00000000
  64      -0.00000000
  65      -0.00000000
  66       0.00237482
  67      -0.04013060
  68      -0.00000000
Ene=     2.02988E-02
Spin= Alpha
Occup=   0.0000000000
   1      -0.06696331
   2       9.14311534
   3      -2.44888589
   4       1.75967130
   5      -0.66633261
   6       0.06944061
   7      -0.06469346
   8       0.03422399
   9      -0.00066438
  10       0.00040133
  11      -0.05186960
  12       0.00000000
  13      -0.00000000
  14       5.44012078
  15      -0.00000000
  16       0.00000000
  17      -1.55633703
  18       0.00000000
  19      -0.00000000
  20       0.70207061
  21      -0.00000000
  22       0.00000000
  23      -0.03367927
  24      -0.04416236
  25      -0.04416236
  26       0.00000000
  27      -0.00000000
  28      -0.00000000
  29       1.55904511
  30       0.05075910
  31       0.05075910
  32      -0.00000000
  33       0.00000000
  34       0.00000000
  35       0.06696331
  36      -9.14311534
  37       2.44888589
  38      -1.75967130
  39       0.66633261
  40      -0.06944061
  41       0.06469346
  42      -0.03422399
  43       0.00066438
  44      -0.00040133
  45      -0.05186960
  46      -0.00000000
  47       0.00000000
  48       5.44012078
  49       0.00000000
  50      -0.00000000
  51      -1.55633703
  52      -0.00000000
  53       0.00000000
  54       0.70207061
  55      -0.00000000
  56      -0.00000000
  57       0.03367927
  58       0.04416236
  59       0.04416236
  60       0.00000000
  61      -0.00000000
  62       0.00000000
  63      -1.55904511
  64      -0.05075910
  65      -0.05075910
  66      -0.00000000
  67       0.00000000
  68      -0.00000000
Ene=     2.19292E-02
Spin= Alpha
Occup=   0.0000000000
   1      -0.00000000
   2      -0.00000000
   3       0.00000000
   4      -0.00000000
   5       0.00000000
   6       0.00000000
   7       0.00000000
   8      -0.00000000
   9       0.00000000
  10      -0.00000000
  11       0.00000000
  12       0.04597702
  13       0.05124755
  14      -0.00000000
  15      -0.12229908
  16      -0.13631868
  17       0.00000000
  18       0.55485127
  19       0.61845597
  20      -0.00000000
  21      -0.66625118
  22      -0.74262607
  23       0.00000000
  24      -0.00000000
  25      -0.00000000
  26      -0.05279925
  27      -0.05885183
  28      -0.00000000
  29      -0.00000000
  30      -0.00000000
  31      -0.00000000
  32       0.08548290
  33       0.09528213
  34       0.00000000
  35      -0.00000000
  36       0.00000000
  37      -0.00000000
  38       0.00000000
  39      -0.00000000
  40      -0.00000000
  41       0.00000000
  42      -0.00000000
  43       0.00000000
  44      -0.00000000
  45      -0.00000000
  46       0.04597702
  47       0.05124755
  48      -0.00000000
  49      -0.12229908
  50      -0.13631868
  51       0.00000000
  52       0.55485127
  53       0.61845597
  54      -0.00000000
  55      -0.66625118
  56      -0.74262607
  57       0.00000000
  58       0.00000000
  59       0.00000000
  60       0.05279925
  61       0.05885183
  62      -0.00000000
  63       0.00000000
  64       0.00000000
  65       0.00000000
  66      -0.08548290
  67      -0.09528213
  68       0.00000000
Ene=     2.19292E-02
Spin= Alpha
Occup=   0.0000000000
   1      -0.00000000
   2       0.00000000
   3       0.00000000
   4      -0.00000000
   5       0.00000000
   6      -0.00000000
   7       0.00000000
   8      -0.00000000
   9      -0.00000000
  10      -0.00000000
  11      -0.00000000
  12      -0.05124755
  13       0.04597702
  14       0.00000000
  15       0.13631868
  16      -0.12229908
  17      -0.00000000
  18      -0.61845597
  19       0.55485127
  20       0.00000000
  21       0.74262607
  22      -0.66625118
  23      -0.00000000
  24       0.00000000
  25       0.00000000
  26       0.05885183
  27      -0.05279925
  28       0.00000000
  29       0.00000000
  30       0.00000000
  31       0.00000000
  32      -0.09528213
  33       0.08548290
  34      -0.00000000
  35       0.00000000
  36      -0.00000000
  37       0.00000000
  38      -0.00000000
  39       0.00000000
  40      -0.00000000
  41       0.00000000
  42      -0.00000000
  43       0.00000000
  44       0.00000000
  45       0.00000000
  46      -0.05124755
  47       0.04597702
  48       0.00000000
  49       0.13631868
  50      -0.12229908
  51      -0.00000000
  52      -0.61845597
  53       0.55485127
  54       0.00000000
  55       0.74262607
  56      -0.66625118
  57      -0.00000000
  58      -0.00000000
  59      -0.00000000
  60      -0.05885183
  61       0.05279925
  62      -0.00000000
  63      -0.00000000
  64       0.00000000
  65       0.00000000
  66       0.09528213
  67      -0.08548290
  68       0.00000000
Ene=     2.63419E-02
Spin= Alpha
Occup=   0.0000000000
   1      -0.66961595
   2      -0.09060502
   3       0.12450830
   4      -0.81736153
   5       0.58729837
   6       0.01967831
   7       0.06392009
   8      -0.04253857
   9      -0.00148928
  10      -0.00017254
  11       0.68644361
  12       0.00000000
  13       0.00000000
  14      -0.25423663
  15      -0.00000000
  16      -0.00000000
  17       0.29981498
  18       0.00000000
  19       0.00000000
  20       0.24576576
  21       0.00000000
  22      -0.00000000
  23       0.38191602
  24       0.04265036
  25       0.04265036
  26       0.00000000
  27       0.00000000
  28       0.00000000
  29       0.04080183
  30       0.11190753
  31       0.11190753
  32      -0.00000000
  33      -0.00000000
  34      -0.00000000
  35      -0.66961595
  36      -0.09060502
  37       0.12450830
  38      -0.81736153
  39       0.58729837
  40       0.01967831
  41       0.06392009
  42      -0.04253857
  43      -0.00148928
  44      -0.00017254
  45      -0.68644361
  46      -0.00000000
  47      -0.00000000
  48       0.25423663
  49       0.00000000
  50       0.00000000
  51      -0.29981498
  52       0.00000000
  53      -0.00000000
  54      -0.24576576
  55      -0.00000000
  56       0.00000000
  57       0.38191602
  58       0.04265036
  59       0.04265036
  60       0.00000000
  61       0.00000000
  62      -0.00000000
  63       0.04080183
  64       0.11190753
  65       0.11190753
  66      -0.00000000
  67      -0.00000000
  68       0.00000000
Ene=     2.72328E-02
Spin= Alpha
Occup=   0.0000000000
   1      -0.00000000
   2      -0.00000000
   3      -0.00000000
   4      -0.00000000
   5       0.00000000
   6       0.00000000
   7       0.00000000
   8      -0.00000000
   9      -0.00000000
  10       0.00000000
  11      -0.00000000
  12      -0.54446580
  13       1.73743181
  14      -0.00000000
  15       0.16041713
  16      -0.51190328
  17       0.00000000
  18      -0.42562776
  19       1.35821058
  20       0.00000000
  21       0.25728310
  22      -0.82100997
  23      -0.00000000
  24      -0.00000000
  25      -0.00000000
  26      -0.14034850
  27       0.44786274
  28       0.00000000
  29      -0.00000000
  30      -0.00000000
  31      -0.00000000
  32       0.00372132
  33      -0.01187502
  34      -0.00000000
  35       0.00000000
  36       0.00000000
  37      -0.00000000
  38       0.00000000
  39      -0.00000000
  40       0.00000000
  41      -0.00000000
  42       0.00000000
  43      -0.00000000
  44       0.00000000
  45      -0.00000000
  46       0.54446580
  47      -1.73743181
  48      -0.00000000
  49      -0.16041713
  50       0.51190328
  51       0.00000000
  52       0.42562776
  53      -1.35821058
  54      -0.00000000
  55      -0.25728310
  56       0.82100997
  57       0.00000000
  58       0.00000000
  59       0.00000000
  60      -0.14034850
  61       0.44786274
  62      -0.00000000
  63       0.00000000
  64       0.00000000
  65       0.00000000
  66       0.00372132
  67      -0.01187502
  68       0.00000000
Ene=     2.72328E-02
Spin= Alpha
Occup=   0.0000000000
   1      -0.00000000
   2       0.00000000
   3      -0.00000000
   4       0.00000000
   5      -0.00000000
   6       0.00000000
   7      -0.00000000
   8       0.00000000
   9      -0.00000000
  10      -0.00000000
  11       0.00000000
  12       1.73743181
  13       0.54446580
  14       0.00000000
  15      -0.51190328
  16      -0.16041713
  17      -0.00000000
  18       1.35821058
  19       0.42562776
  20      -0.00000000
  21      -0.82100997
  22      -0.25728310
  23       0.00000000
  24       0.00000000
  25       0.00000000
  26       0.44786274
  27       0.14034850
  28      -0.00000000
  29       0.00000000
  30       0.00000000
  31       0.00000000
  32      -0.01187502
  33      -0.00372132
  34       0.00000000
  35       0.00000000
  36      -0.00000000
  37       0.00000000
  38      -0.00000000
  39       0.00000000
  40      -0.00000000
  41       0.00000000
  42      -0.00000000
  43      -0.00000000
  44       0.00000000
  45      -0.00000000
  46      -1.73743181
  47      -0.54446580
  48       0.00000000
  49       0.51190328
  50       0.16041713
  51      -0.00000000
  52      -1.35821058
  53      -0.42562776
  54       0.00000000
  55       0.82100997
  56       0.25728310
  57       0.00000000
  58      -0.00000000
  59      -0.00000000
  60       0.44786274
  61       0.14034850
  62       0.00000000
  63      -0.00000000
  64      -0.00000000
  65      -0.00000000
  66      -0.01187502
  67      -0.00372132
  68      -0.00000000
Ene=     2.79953E-02
Spin= Alpha
Occup=   0.0000000000
   1       0.02284495
   2      -2.13622405
   3       0.81785029
   4      -1.40868002
   5       0.76219045
   6       0.00314500
   7       0.07468961
   8      -0.04772404
   9      -0.00128388
  10      -0.00024924
  11      -0.00538573
  12      -0.00000000
  13       0.00000000
  14      -1.36725181
  15       0.00000000
  16      -0.00000000
  17       0.70788886
  18       0.00000000
  19      -0.00000000
  20       0.25478914
  21      -0.00000000
  22       0.00000000
  23      -0.01821719
  24       0.00720213
  25       0.00720213
  26      -0.00000000
  27       0.00000000
  28       0.00000000
  29      -0.42056652
  30      -0.07400251
  31      -0.07400251
  32       0.00000000
  33      -0.00000000
  34      -0.00000000
  35      -0.02284495
  36       2.13622405
  37      -0.81785029
  38       1.40868002
  39      -0.76219045
  40      -0.00314500
  41      -0.07468961
  42       0.04772404
  43       0.00128388
  44       0.00024924
  45      -0.00538573
  46       0.00000000
  47      -0.00000000
  48      -1.36725181
  49      -0.00000000
  50       0.00000000
  51       0.70788886
  52      -0.00000000
  53       0.00000000
  54       0.25478914
  55       0.00000000
  56      -0.00000000
  57       0.01821719
  58      -0.00720213
  59      -0.00720213
  60      -0.00000000
  61       0.00000000
  62      -0.00000000
  63       0.42056652
  64       0.07400251
  65       0.07400251
  66       0.00000000
  67      -0.00000000
  68       0.00000000
Ene=     3.14065E-02
Spin= Alpha
Occup=   0.0000000000
   1       5.50642472
   2       2.23239181
   3      -4.19884134
   4       1.63188291
   5      -0.44617110
   6      -0.02476444
   7      -0.02991768
   8       0.02179456
   9       0.00120261
  10       0.00002712
  11      -3.18058148
  12      -0.00000000
  13       0.00000000
  14       1.51119901
  15       0.00000000
  16       0.00000000
  17      -0.85782656
  18       0.00000000
  19      -0.00000000
  20       0.53817353
  21      -0.00000000
  22       0.00000000
  23      -2.18961027
  24      -0.54893206
  25      -0.54893206
  26      -0.00000000
  27       0.00000000
  28      -0.00000000
  29      -0.85616923
  30      -1.63953502
  31      -1.63953502
  32       0.00000000
  33       0.00000000
  34       0.00000000
  35       5.50642472
  36       2.23239181
  37      -4.19884134
  38       1.63188291
  39      -0.44617110
  40      -0.02476444
  41      -0.02991768
  42       0.02179456
  43       0.00120261
  44       0.00002712
  45       3.18058148
  46       0.00000000
  47      -0.00000000
  48      -1.51119901
  49      -0.00000000
  50      -0.00000000
  51       0.85782656
  52      -0.00000000
  53       0.00000000
  54      -0.53817353
  55       0.00000000
  56      -0.00000000
  57      -2.18961027
  58      -0.54893206
  59      -0.54893206
  60      -0.00000000
  61       0.00000000
  62       0.00000000
  63      -0.85616923
  64      -1.63953502
  65      -1.63953502
  66       0.00000000
  67       0.00000000
  68      -0.00000000
Ene=     3.35334E-02
Spin= Alpha
Occup=   0.0000000000
   1      -0.77067901
   2      -0.99572808
   3       2.37244413
   4      -1.88429635
   5       0.73901247
   6      -0.00996721
   7       0.05844290
   8      -0.03606153
   9      -0.00073625
  10      -0.00022354
  11      -0.39953001
  12      -0.00000000
  13      -0.00000000
  14       0.03966895
  15       0.00000000
  16       0.00000000
  17      -0.73447534
  18      -0.00000000
  19      -0.00000000
  20       0.58397393
  21       0.00000000
  22      -0.00000000
  23      -0.03245974
  24       0.14598386
  25       0.14598386
  26      -0.00000000
  27      -0.00000000
  28      -0.00000000
  29       0.37597432
  30       0.49445065
  31       0.49445065
  32       0.00000000
  33       0.00000000
  34       0.00000000
  35      -0.77067901
  36      -0.99572808
  37       2.37244413
  38      -1.88429635
  39       0.73901247
  40      -0.00996721
  41       0.05844290
  42      -0.03606153
  43      -0.00073625
  44      -0.00022354
  45       0.39953001
  46       0.00000000
  47       0.00000000
  48      -0.03966895
  49      -0.00000000
  50      -0.00000000
  51       0.73447534
  52       0.00000000
  53       0.00000000
  54      -0.58397393
  55      -0.00000000
  56      -0.00000000
  57      -0.03245974
  58       0.14598386
  59       0.14598386
  60      -0.00000000
  61      -0.00000000
  62       0.00000000
  63       0.37597432
  64       0.49445065
  65       0.49445065
  66       0.00000000
  67       0.00000000
  68      -0.00000000
Ene=     3.41628E-02
Spin= Alpha
Occup=   0.0000000000
   1       0.05587764
   2      -7.39873604
   3      -0.48678761
   4       0.99692421
   5      -0.46904619
   6       0.02679361
   7      -0.03884393
   8       0.02184457
   9      -0.00002753
  10       0.00020251
  11       0.02807950
  12       0.00000000