[Molden Format]
[Title]
 Molden2AIM, Version 3.1.0 (02/25/2015)           Time: Thu Oct 17 19:55:47 2024

[Atoms] AU
E+       1       4     0.00000000     0.00000000     0.00000000
E+       2       4    50.60000000     0.00000000     0.00000000
[GTO]
    1 0
 S   1 1.0
    0.1000000000D-03      0.1000000000D+01
 S   1 1.0
    0.3000000000D-03      0.1000000000D+01
 S   1 1.0
    0.9000000000D-03      0.1000000000D+01
 S   1 1.0
    0.2700000000D-02      0.1000000000D+01
 S   1 1.0
    0.8100000000D-02      0.1000000000D+01
 S   1 1.0
    0.2430000000D-01      0.1000000000D+01
 S   1 1.0
    0.7290000000D-01      0.1000000000D+01
 S   1 1.0
    0.2187000000D+00      0.1000000000D+01
 S   1 1.0
    0.6561000000D+00      0.1000000000D+01
 S   1 1.0
    0.1968300000D+01      0.1000000000D+01
 P   1 1.0
    0.1000000000D-03      0.1000000000D+01
 P   1 1.0
    0.3000000000D-03      0.1000000000D+01
 P   1 1.0
    0.9000000000D-03      0.1000000000D+01
 P   1 1.0
    0.2700000000D-02      0.1000000000D+01
 D   1 1.0
    0.1000000000D-03      0.1000000000D+01
 D   1 1.0
    0.3000000000D-03      0.1000000000D+01

    2 0
 S   1 1.0
    0.1000000000D-03      0.1000000000D+01
 S   1 1.0
    0.3000000000D-03      0.1000000000D+01
 S   1 1.0
    0.9000000000D-03      0.1000000000D+01
 S   1 1.0
    0.2700000000D-02      0.1000000000D+01
 S   1 1.0
    0.8100000000D-02      0.1000000000D+01
 S   1 1.0
    0.2430000000D-01      0.1000000000D+01
 S   1 1.0
    0.7290000000D-01      0.1000000000D+01
 S   1 1.0
    0.2187000000D+00      0.1000000000D+01
 S   1 1.0
    0.6561000000D+00      0.1000000000D+01
 S   1 1.0
    0.1968300000D+01      0.1000000000D+01
 P   1 1.0
    0.1000000000D-03      0.1000000000D+01
 P   1 1.0
    0.3000000000D-03      0.1000000000D+01
 P   1 1.0
    0.9000000000D-03      0.1000000000D+01
 P   1 1.0
    0.2700000000D-02      0.1000000000D+01
 D   1 1.0
    0.1000000000D-03      0.1000000000D+01
 D   1 1.0
    0.3000000000D-03      0.1000000000D+01


[MO]
 Ene=          0.00064749
 Spin= Alpha
 Occup=        1.00000000
    1       -0.0960150400
    2       -0.0954758900
    3        0.2012029400
    4        0.2100085000
    5        0.2007690800
    6        0.1690131100
    7        0.1002094200
    8       -0.0818568200
    9       -0.0057355400
   10        0.0000995100
   11        0.0606332000
   12       -0.0000000000
   13       -0.0000000000
   14       -0.0101879700
   15        0.0000000000
   16        0.0000000000
   17        0.0320031500
   18       -0.0000000000
   19       -0.0000000000
   20        0.1940483500
   21        0.0000000000
   22        0.0000000000
   23        0.0341092100
   24        0.0097642700
   25        0.0097642700
   26       -0.0000000000
   27       -0.0000000000
   28       -0.0000000000
   29        0.0430853900
   30        0.0346147400
   31        0.0346147400
   32        0.0000000000
   33        0.0000000000
   34        0.0000000000
   35       -0.0960150400
   36       -0.0954758900
   37        0.2012029400
   38        0.2100085000
   39        0.2007690800
   40        0.1690131100
   41        0.1002094200
   42       -0.0818568200
   43       -0.0057355400
   44        0.0000995100
   45       -0.0606332000
   46        0.0000000000
   47        0.0000000000
   48        0.0101879700
   49       -0.0000000000
   50       -0.0000000000
   51       -0.0320031500
   52        0.0000000000
   53        0.0000000000
   54       -0.1940483500
   55       -0.0000000000
   56       -0.0000000000
   57        0.0341092100
   58        0.0097642700
   59        0.0097642700
   60       -0.0000000000
   61       -0.0000000000
   62        0.0000000000
   63        0.0430853900
   64        0.0346147400
   65        0.0346147400
   66        0.0000000000
   67        0.0000000000
   68       -0.0000000000
 Ene=          0.00115690
 Spin= Alpha
 Occup=        0.00000000
    1       -0.0216090700
    2        1.3984506300
    3       -0.0067420800
    4        0.3382504500
    5        0.2063300700
    6        0.2026870100
    7        0.1102476300
    8       -0.0918421000
    9       -0.0067640000
   10        0.0001582800
   11        0.0227081900
   12       -0.0000000000
   13       -0.0000000000
   14        0.7483352900
   15        0.0000000000
   16        0.0000000000
   17       -0.1101646000
   18       -0.0000000000
   19       -0.0000000000
   20        0.2243575900
   21        0.0000000000
   22        0.0000000000
   23        0.0198789500
   24        0.0176820900
   25        0.0176820900
   26       -0.0000000000
   27       -0.0000000000
   28       -0.0000000000
   29        0.2405892400
   30        0.0472200200
   31        0.0472200200
   32        0.0000000000
   33        0.0000000000
   34        0.0000000000
   35        0.0216090700
   36       -1.3984506300
   37        0.0067420800
   38       -0.3382504500
   39       -0.2063300700
   40       -0.2026870100
   41       -0.1102476300
   42        0.0918421000
   43        0.0067640000
   44       -0.0001582800
   45        0.0227081900
   46        0.0000000000
   47        0.0000000000
   48        0.7483352900
   49       -0.0000000000
   50       -0.0000000000
   51       -0.1101646000
   52        0.0000000000
   53       -0.0000000000
   54        0.2243575900
   55       -0.0000000000
   56        0.0000000000
   57       -0.0198789500
   58       -0.0176820900
   59       -0.0176820900
   60       -0.0000000000
   61       -0.0000000000
   62       -0.0000000000
   63       -0.2405892400
   64       -0.0472200200
   65       -0.0472200200
   66        0.0000000000
   67        0.0000000000
   68        0.0000000000
 Ene=          0.00550658
 Spin= Alpha
 Occup=        0.00000000
    1        0.6145510900
    2        0.1634340500
    3       -0.9315522000
    4        0.5937810300
    5        0.1026210300
    6        0.1580018200
    7        0.0621799000
    8       -0.0562447600
    9       -0.0049448500
   10        0.0002083400
   11       -0.8265626100
   12       -0.0000000000
   13        0.0000000000
   14        0.2885595200
   15        0.0000000000
   16       -0.0000000000
   17       -0.4959906000
   18       -0.0000000000
   19        0.0000000000
   20        0.1029389700
   21        0.0000000000
   22       -0.0000000000
   23       -0.3921508700
   24       -0.0290652300
   25       -0.0290652300
   26       -0.0000000000
   27        0.0000000000
   28       -0.0000000000
   29       -0.0195939700
   30       -0.0946688000
   31       -0.0946688000
   32        0.0000000000
   33       -0.0000000000
   34        0.0000000000
   35        0.6145510900
   36        0.1634340500
   37       -0.9315522000
   38        0.5937810300
   39        0.1026210300
   40        0.1580018200
   41        0.0621799000
   42       -0.0562447600
   43       -0.0049448500
   44        0.0002083400
   45        0.8265626100
   46        0.0000000000
   47       -0.0000000000
   48       -0.2885595200
   49       -0.0000000000
   50        0.0000000000
   51        0.4959906000
   52        0.0000000000
   53       -0.0000000000
   54       -0.1029389700
   55       -0.0000000000
   56        0.0000000000
   57       -0.3921508700
   58       -0.0290652300
   59       -0.0290652300
   60       -0.0000000000
   61        0.0000000000
   62        0.0000000000
   63       -0.0195939700
   64       -0.0946688000
   65       -0.0946688000
   66        0.0000000000
   67       -0.0000000000
   68       -0.0000000000
 Ene=          0.01169510
 Spin= Alpha
 Occup=        0.00000000
    1        0.0132166200
    2       -3.9472770300
    3        0.9390894200
    4        0.3208978100
    5       -0.6004438000
    6       -0.0727286200
    7       -0.0995068300
    8        0.0707631200
    9        0.0032738600
   10        0.0001656700
   11        0.0959107500
   12        0.0000000000
   13        0.0000000000
   14       -1.9050453600
   15       -0.0000000000
   16       -0.0000000000
   17        0.2824524600
   18        0.0000000000
   19        0.0000000000
   20        0.4531647400
   21       -0.0000000000
   22        0.0000000000
   23        0.0842810200
   24        0.0657466200
   25        0.0657466200
   26        0.0000000000
   27        0.0000000000
   28       -0.0000000000
   29       -0.3695436900
   30        0.1237762000
   31        0.1237762000
   32       -0.0000000000
   33       -0.0000000000
   34        0.0000000000
   35       -0.0132166200
   36        3.9472770300
   37       -0.9390894200
   38       -0.3208978100
   39        0.6004438000
   40        0.0727286200
   41        0.0995068300
   42       -0.0707631200
   43       -0.0032738600
   44       -0.0001656700
   45        0.0959107500
   46       -0.0000000000
   47       -0.0000000000
   48       -1.9050453600
   49        0.0000000000
   50        0.0000000000
   51        0.2824524600
   52       -0.0000000000
   53       -0.0000000000
   54        0.4531647400
   55        0.0000000000
   56        0.0000000000
   57       -0.0842810200
   58       -0.0657466200
   59       -0.0657466200
   60        0.0000000000
   61        0.0000000000
   62        0.0000000000
   63        0.3695436900
   64       -0.1237762000
   65       -0.1237762000
   66       -0.0000000000
   67       -0.0000000000
   68       -0.0000000000
 Ene=          0.01241230
 Spin= Alpha
 Occup=        0.00000000
    1        0.0000000000
    2       -0.0000000000
    3        0.0000000000
    4       -0.0000000000
    5        0.0000000000
    6       -0.0000000000
    7        0.0000000000
    8       -0.0000000000
    9       -0.0000000000
   10        0.0000000000
   11       -0.0000000000
   12        0.0209010000
   13       -0.0447199700
   14       -0.0000000000
   15       -0.0555732000
   16        0.1189049500
   17        0.0000000000
   18        0.1890473000
   19       -0.4044874500
   20       -0.0000000000
   21        0.1284018600
   22       -0.2747298700
   23       -0.0000000000
   24       -0.0000000000
   25       -0.0000000000
   26       -0.0212224200
   27        0.0454077000
   28        0.0000000000
   29       -0.0000000000
   30       -0.0000000000
   31       -0.0000000000
   32        0.0370658000
   33       -0.0793063600
   34       -0.0000000000
   35        0.0000000000
   36        0.0000000000
   37       -0.0000000000
   38        0.0000000000
   39       -0.0000000000
   40        0.0000000000
   41       -0.0000000000
   42        0.0000000000
   43       -0.0000000000
   44        0.0000000000
   45        0.0000000000
   46        0.0209010000
   47       -0.0447199700
   48       -0.0000000000
   49       -0.0555732000
   50        0.1189049500
   51        0.0000000000
   52        0.1890473000
   53       -0.4044874500
   54       -0.0000000000
   55        0.1284018600
   56       -0.2747298700
   57       -0.0000000000
   58        0.0000000000
   59        0.0000000000
   60        0.0212224200
   61       -0.0454077000
   62       -0.0000000000
   63        0.0000000000
   64       -0.0000000000
   65        0.0000000000
   66       -0.0370658000
   67        0.0793063600
   68        0.0000000000
 Ene=          0.01241230
 Spin= Alpha
 Occup=        0.00000000
    1        0.0000000000
    2       -0.0000000000
    3        0.0000000000
    4       -0.0000000000
    5        0.0000000000
    6        0.0000000000
    7        0.0000000000
    8       -0.0000000000
    9       -0.0000000000
   10        0.0000000000
   11       -0.0000000000
   12        0.0447199700
   13        0.0209010000
   14       -0.0000000000
   15       -0.1189049500
   16       -0.0555732000
   17        0.0000000000
   18        0.4044874500
   19        0.1890473000
   20       -0.0000000000
   21        0.2747298700
   22        0.1284018600
   23       -0.0000000000
   24       -0.0000000000
   25       -0.0000000000
   26       -0.0454077000
   27       -0.0212224200
   28       -0.0000000000
   29       -0.0000000000
   30       -0.0000000000
   31       -0.0000000000
   32        0.0793063600
   33        0.0370658000
   34        0.0000000000
   35       -0.0000000000
   36        0.0000000000
   37       -0.0000000000
   38        0.0000000000
   39       -0.0000000000
   40       -0.0000000000
   41       -0.0000000000
   42        0.0000000000
   43       -0.0000000000
   44        0.0000000000
   45       -0.0000000000
   46        0.0447199700
   47        0.0209010000
   48       -0.0000000000
   49       -0.1189049500
   50       -0.0555732000
   51        0.0000000000
   52        0.4044874500
   53        0.1890473000
   54       -0.0000000000
   55        0.2747298700
   56        0.1284018600
   57        0.0000000000
   58        0.0000000000
   59        0.0000000000
   60        0.0454077000
   61        0.0212224200
   62        0.0000000000
   63        0.0000000000
   64        0.0000000000
   65        0.0000000000
   66       -0.0793063600
   67       -0.0370658000
   68        0.0000000000
 Ene=          0.01312810
 Spin= Alpha
 Occup=        0.00000000
    1       -0.0970682300
    2       -0.3292796900
    3       -0.3260402500
    4        1.3522381700
    5       -0.8361996200
    6        0.0341997400
    7       -0.1045714300
    8        0.0629139500
    9        0.0006761700
   10        0.0004670100
   11       -0.7130090200
   12        0.0000000000
   13        0.0000000000
   14        0.1747046500
   15        0.0000000000
   16       -0.0000000000
   17       -0.6323940100
   18       -0.0000000000
   19        0.0000000000
   20        0.8208016000
   21        0.0000000000
   22       -0.0000000000
   23       -0.2454497000
   24        0.0659439700
   25        0.0659439700
   26        0.0000000000
   27        0.0000000000
   28        0.0000000000
   29        0.2081035000
   30        0.2137298400
   31        0.2137298400
   32        0.0000000000
   33       -0.0000000000
   34       -0.0000000000
   35       -0.0970682300
   36       -0.3292796900
   37       -0.3260402500
   38        1.3522381700
   39       -0.8361996200
   40        0.0341997400
   41       -0.1045714300
   42        0.0629139500
   43        0.0006761700
   44        0.0004670100
   45        0.7130090200
   46       -0.0000000000
   47       -0.0000000000
   48       -0.1747046500
   49        0.0000000000
   50        0.0000000000
   51        0.6323940100
   52       -0.0000000000
   53       -0.0000000000
   54       -0.8208016000
   55       -0.0000000000
   56       -0.0000000000
   57       -0.2454497000
   58        0.0659439700
   59        0.0659439700
   60        0.0000000000
   61        0.0000000000
   62       -0.0000000000
   63        0.2081035000
   64        0.2137298400
   65        0.2137298400
   66        0.0000000000
   67       -0.0000000000
   68        0.0000000000
 Ene=          0.01466770
 Spin= Alpha
 Occup=        0.00000000
    1       -0.0000000000
    2       -0.0000000000
    3        0.0000000000
    4        0.0000000000
    5       -0.0000000000
    6        0.0000000000
    7       -0.0000000000
    8        0.0000000000
    9       -0.0000000000
   10        0.0000000000
   11        0.0000000000
   12        0.0502007600
   13       -0.0098093900
   14       -0.0000000000
   15       -0.0720478200
   16        0.0140783800
   17        0.0000000000
   18       -0.0077901600
   19        0.0015222200
   20        0.0000000000
   21       -0.6998918900
   22        0.1367612000
   23        0.0000000000
   24       -0.0000000000
   25       -0.0000000000
   26        0.0182862100
   27       -0.0035731900
   28        0.0000000000
   29       -0.0000000000
   30        0.0000000000
   31        0.0000000000
   32       -0.0439041800
   33        0.0085790200
   34       -0.0000000000
   35       -0.0000000000
   36        0.0000000000
   37        0.0000000000
   38        0.0000000000
   39       -0.0000000000
   40       -0.0000000000
   41        0.0000000000
   42        0.0000000000
   43       -0.0000000000
   44       -0.0000000000
   45       -0.0000000000
   46       -0.0502007600
   47        0.0098093900
   48       -0.0000000000
   49        0.0720478200
   50       -0.0140783800
   51        0.0000000000
   52        0.0077901600
   53       -0.0015222200
   54       -0.0000000000
   55        0.6998918900
   56       -0.1367612000
   57        0.0000000000
   58        0.0000000000
   59        0.0000000000
   60        0.0182862100
   61       -0.0035731900
   62       -0.0000000000
   63        0.0000000000
   64        0.0000000000
   65        0.0000000000
   66       -0.0439041800
   67        0.0085790200
   68        0.0000000000
 Ene=          0.01466770
 Spin= Alpha
 Occup=        0.00000000
    1       -0.0000000000
    2        0.0000000000
    3       -0.0000000000
    4        0.0000000000
    5       -0.0000000000
    6       -0.0000000000
    7        0.0000000000
    8       -0.0000000000
    9        0.0000000000
   10        0.0000000000
   11        0.0000000000
   12        0.0098093900
   13        0.0502007600
   14        0.0000000000
   15       -0.0140783800
   16       -0.0720478200
   17       -0.0000000000
   18       -0.0015222200
   19       -0.0077901600
   20        0.0000000000
   21       -0.1367612000
   22       -0.6998918900
   23        0.0000000000
   24        0.0000000000
   25        0.0000000000
   26        0.0035731900
   27        0.0182862100
   28       -0.0000000000
   29        0.0000000000
   30        0.0000000000
   31        0.0000000000
   32       -0.0085790200
   33       -0.0439041800
   34        0.0000000000
   35       -0.0000000000
   36       -0.0000000000
   37        0.0000000000
   38       -0.0000000000
   39        0.0000000000
   40       -0.0000000000
   41        0.0000000000
   42       -0.0000000000
   43        0.0000000000
   44       -0.0000000000
   45       -0.0000000000
   46       -0.0098093900
   47       -0.0502007600
   48        0.0000000000
   49        0.0140783800
   50        0.0720478200
   51       -0.0000000000
   52        0.0015222200
   53        0.0077901600
   54        0.0000000000
   55        0.1367612000
   56        0.6998918900
   57        0.0000000000
   58       -0.0000000000
   59       -0.0000000000
   60        0.0035731900
   61        0.0182862100
   62        0.0000000000
   63       -0.0000000000
   64        0.0000000000
   65        0.0000000000
   66       -0.0085790200
   67       -0.0439041800
   68       -0.0000000000
 Ene=          0.01827890
 Spin= Alpha
 Occup=        0.00000000
    1        0.1581908800
    2      -15.7431999900
    3        2.7114232400
    4       -1.6517802400
    5        0.5664458100
    6       -0.0547617200
    7        0.0507206500
    8       -0.0267912900
    9        0.0005111900
   10       -0.0003134800
   11        0.0335005100
   12        0.0000000000
   13        0.0000000000
   14       -8.0608216400
   15       -0.0000000000
   16       -0.0000000000
   17        1.6390815600
   18       -0.0000000000
   19       -0.0000000000
   20       -0.6924893100
   21        0.0000000000
   22        0.0000000000
   23        0.0149332900
   24        0.0160777100
   25        0.0160777100
   26        0.0000000000
   27        0.0000000000
   28        0.0000000000
   29       -2.1331506200
   30       -0.0876149200
   31       -0.0876149200
   32        0.0000000000
   33       -0.0000000000
   34       -0.0000000000
   35       -0.1581908800
   36       15.7431999900
   37       -2.7114232400
   38        1.6517802400
   39       -0.5664458100
   40        0.0547617200
   41       -0.0507206500
   42        0.0267912900
   43       -0.0005111900
   44        0.0003134800
   45        0.0335005100
   46       -0.0000000000
   47       -0.0000000000
   48       -8.0608216400
   49        0.0000000000
   50        0.0000000000
   51        1.6390815600
   52       -0.0000000000
   53       -0.0000000000
   54       -0.6924893100
   55        0.0000000000
   56        0.0000000000
   57       -0.0149332900
   58       -0.0160777100
   59       -0.0160777100
   60        0.0000000000
   61        0.0000000000
   62       -0.0000000000
   63        2.1331506200
   64        0.0876149200
   65        0.0876149200
   66        0.0000000000
   67       -0.0000000000
   68        0.0000000000
 Ene=          0.01879920
 Spin= Alpha
 Occup=        0.00000000
    1        0.0000000000
    2       -0.0000000000
    3       -0.0000000000
    4        0.0000000000
    5       -0.0000000000
    6        0.0000000000
    7       -0.0000000000
    8        0.0000000000
    9        0.0000000000
   10       -0.0000000000
   11        0.0000000000
   12       -0.0644816500
   13       -0.0405285500
   14       -0.0000000000
   15        0.1837587300
   16        0.1154975800
   17       -0.0000000000
   18       -0.7819519600
   19       -0.4914790400
   20        0.0000000000
   21        0.8294721700
   22        0.5213468400
   23        0.0000000000
   24       -0.0000000000
   25       -0.0000000000
   26        0.0565861900
   27        0.0355660300
   28       -0.0000000000
   29       -0.0000000000
   30       -0.0000000000
   31       -0.0000000000
   32       -0.1039158900
   33       -0.0653140900
   34        0.0000000000
   35       -0.0000000000
   36        0.0000000000
   37        0.0000000000
   38       -0.0000000000
   39        0.0000000000
   40       -0.0000000000
   41        0.0000000000
   42       -0.0000000000
   43       -0.0000000000
   44        0.0000000000
   45       -0.0000000000
   46       -0.0644816500
   47       -0.0405285500
   48       -0.0000000000
   49        0.1837587300
   50        0.1154975800
   51       -0.0000000000
   52       -0.7819519600
   53       -0.4914790400
   54        0.0000000000
   55        0.8294721700
   56        0.5213468400
   57        0.0000000000
   58        0.0000000000
   59        0.0000000000
   60       -0.0565861900
   61       -0.0355660300
   62        0.0000000000
   63        0.0000000000
   64        0.0000000000
   65        0.0000000000
   66        0.1039158900
   67        0.0653140900
   68       -0.0000000000
 Ene=          0.01879920
 Spin= Alpha
 Occup=        0.00000000
    1        0.0000000000
    2       -0.0000000000
    3       -0.0000000000
    4        0.0000000000
    5       -0.0000000000
    6        0.0000000000
    7       -0.0000000000
    8        0.0000000000
    9       -0.0000000000
   10       -0.0000000000
   11       -0.0000000000
   12        0.0405285500
   13       -0.0644816500
   14       -0.0000000000
   15       -0.1154975800
   16        0.1837587300
   17       -0.0000000000
   18        0.4914790400
   19       -0.7819519600
   20        0.0000000000
   21       -0.5213468400
   22        0.8294721700
   23       -0.0000000000
   24       -0.0000000000
   25       -0.0000000000
   26       -0.0355660300
   27        0.0565861900
   28        0.0000000000
   29       -0.0000000000
   30       -0.0000000000
   31       -0.0000000000
   32        0.0653140900
   33       -0.1039158900
   34       -0.0000000000
   35        0.0000000000
   36        0.0000000000
   37        0.0000000000
   38       -0.0000000000
   39        0.0000000000
   40       -0.0000000000
   41        0.0000000000
   42       -0.0000000000
   43       -0.0000000000
   44        0.0000000000
   45        0.0000000000
   46        0.0405285500
   47       -0.0644816500
   48       -0.0000000000
   49       -0.1154975800
   50        0.1837587300
   51       -0.0000000000
   52        0.4914790400
   53       -0.7819519600
   54        0.0000000000
   55       -0.5213468400
   56        0.8294721700
   57       -0.0000000000
   58        0.0000000000
   59        0.0000000000
   60        0.0355660300
   61       -0.0565861900
   62       -0.0000000000
   63        0.0000000000
   64        0.0000000000
   65        0.0000000000
   66       -0.0653140900
   67        0.1039158900
   68       -0.0000000000
 Ene=          0.02253380
 Spin= Alpha
 Occup=        0.00000000
    1        0.3686804600
    2        0.0497588600
    3       -0.1536421000
    4        1.0002973000
    5       -0.6579084700
    6       -0.0224667300
    7       -0.0691613900
    8        0.0460329500
    9        0.0016122000
   10        0.0001873500
   11       -0.4623824300
   12        0.0000000000
   13        0.0000000000
   14        0.1276336100
   15        0.0000000000
   16       -0.0000000000
   17       -0.1897898900
   18       -0.0000000000
   19        0.0000000000
   20       -0.3098758100
   21        0.0000000000
   22       -0.0000000000
   23       -0.2234252200
   24       -0.0211296400
   25       -0.0211296400
   26        0.0000000000
   27        0.0000000000
   28       -0.0000000000
   29       -0.0301633400
   30       -0.0506262500
   31       -0.0506262500
   32        0.0000000000
   33       -0.0000000000
   34        0.0000000000
   35        0.3686804600
   36        0.0497588600
   37       -0.1536421000
   38        1.0002973000
   39       -0.6579084700
   40       -0.0224667300
   41       -0.0691613900
   42        0.0460329500
   43        0.0016122000
   44        0.0001873500
   45        0.4623824300
   46       -0.0000000000
   47       -0.0000000000
   48       -0.1276336100
   49       -0.0000000000
   50        0.0000000000
   51        0.1897898900
   52        0.0000000000
   53       -0.0000000000
   54        0.3098758100
   55       -0.0000000000
   56        0.0000000000
   57       -0.2234252200
   58       -0.0211296400
   59       -0.0211296400
   60        0.0000000000
   61        0.0000000000
   62        0.0000000000
   63       -0.0301633400
   64       -0.0506262500
   65       -0.0506262500
   66        0.0000000000
   67       -0.0000000000
   68       -0.0000000000
 Ene=          0.02441220
 Spin= Alpha
 Occup=        0.00000000
    1       -0.0389845000
    2        4.4731891100
    3       -1.4981474400
    4        1.7241173200
    5       -0.8311344300
    6       -0.0080983800
    7       -0.0778985500
    8        0.0501529000
    9        0.0014331600
   10        0.0002509100
   11       -0.0332082500
   12       -0.0000000000
   13       -0.0000000000
   14        2.3001865100
   15        0.0000000000
   16        0.0000000000
   17       -0.8070203200
   18       -0.0000000000
   19       -0.0000000000
   20       -0.3160902700
   21        0.0000000000
   22        0.0000000000
   23       -0.0145036000
   24       -0.0294431700
   25       -0.0294431700
   26       -0.0000000000
   27       -0.0000000000
   28        0.0000000000
   29        0.5679199800
   30        0.0161880400
   31        0.0161880400
   32        0.0000000000
   33        0.0000000000
   34       -0.0000000000
   35        0.0389845000
   36       -4.4731891100
   37        1.4981474400
   38       -1.7241173200
   39        0.8311344300
   40        0.0080983800
   41        0.0778985500
   42       -0.0501529000
   43       -0.0014331600
   44       -0.0002509100
   45       -0.0332082500
   46        0.0000000000
   47        0.0000000000
   48        2.3001865100
   49       -0.0000000000
   50       -0.0000000000
   51       -0.8070203200
   52        0.0000000000
   53        0.0000000000
   54       -0.3160902700
   55       -0.0000000000
   56       -0.0000000000
   57        0.0145036000
   58        0.0294431700
   59        0.0294431700
   60       -0.0000000000
   61       -0.0000000000
   62       -0.0000000000
   63       -0.5679199800
   64       -0.0161880400
   65       -0.0161880400
   66        0.0000000000
   67        0.0000000000
   68        0.0000000000
 Ene=          0.02496680
 Spin= Alpha
 Occup=        0.00000000
    1        0.0000000000
    2       -0.0000000000
    3       -0.0000000000
    4        0.0000000000
    5       -0.0000000000
    6        0.0000000000
    7       -0.0000000000
    8        0.0000000000
    9        0.0000000000
   10        0.0000000000
   11       -0.0000000000
   12        0.6833864700
   13        2.6392945600
   14       -0.0000000000
   15       -0.1770550800
   16       -0.6838012500
   17        0.0000000000
   18        0.3754274700
   19        1.4499316700
   20       -0.0000000000
   21       -0.2045430900
   22       -0.7899622000
   23       -0.0000000000
   24       -0.0000000000
   25       -0.0000000000
   26        0.1640050500
   27        0.6334009400
   28       -0.0000000000
   29       -0.0000000000
   30       -0.0000000000
   31       -0.0000000000
   32       -0.0178382600
   33       -0.0688928100
   34        0.0000000000
   35       -0.0000000000
   36        0.0000000000
   37        0.0000000000
   38       -0.0000000000
   39        0.0000000000
   40       -0.0000000000
   41        0.0000000000
   42       -0.0000000000
   43       -0.0000000000
   44        0.0000000000
   45       -0.0000000000
   46       -0.6833864700
   47       -2.6392945600
   48       -0.0000000000
   49        0.1770550800
   50        0.6838012500
   51        0.0000000000
   52       -0.3754274700
   53       -1.4499316700
   54       -0.0000000000
   55        0.2045430900
   56        0.7899622000
   57        0.0000000000
   58        0.0000000000
   59        0.0000000000
   60        0.1640050500
   61        0.6334009400
   62        0.0000000000
   63        0.0000000000
   64        0.0000000000
   65        0.0000000000
   66       -0.0178382600
   67       -0.0688928100
   68       -0.0000000000
 Ene=          0.02496680
 Spin= Alpha
 Occup=        0.00000000
    1        0.0000000000
    2       -0.0000000000
    3       -0.0000000000
    4        0.0000000000
    5       -0.0000000000
    6        0.0000000000
    7       -0.0000000000
    8        0.0000000000
    9       -0.0000000000
   10        0.0000000000
   11       -0.0000000000
   12        2.6392945600
   13       -0.6833864700
   14       -0.0000000000
   15       -0.6838012500
   16        0.1770550800