 Molden2AIM, Version 3.1.0 (02/25/2015)           Time: Thu Oct 17 19:55:12 2024
GAUSSIAN             68 MOL ORBITALS     68 PRIMITIVES        2 NUCLEI
  Be   1    (CENTRE  1)   0.00000000  0.00000000  0.00000000  CHARGE =  4.0
  Be   2    (CENTRE  2)  43.00000000  0.00000000  0.00000000  CHARGE =  4.0
CENTRE ASSIGNMENTS    1  1  1  1  1  1  1  1  1  1  1  1  1  1  1  1  1  1  1  1
CENTRE ASSIGNMENTS    1  1  1  1  1  1  1  1  1  1  1  1  1  1  2  2  2  2  2  2
CENTRE ASSIGNMENTS    2  2  2  2  2  2  2  2  2  2  2  2  2  2  2  2  2  2  2  2
CENTRE ASSIGNMENTS    2  2  2  2  2  2  2  2
TYPE ASSIGNMENTS      1  1  1  1  1  1  1  1  1  1  2  3  4  2  3  4  2  3  4  2
TYPE ASSIGNMENTS      3  4  5  6  7  8  9 10  5  6  7  8  9 10  1  1  1  1  1  1
TYPE ASSIGNMENTS      1  1  1  1  2  3  4  2  3  4  2  3  4  2  3  4  5  6  7  8
TYPE ASSIGNMENTS      9 10  5  6  7  8  9 10
EXPONENTS  0.1000000D-03 0.3000000D-03 0.9000000D-03 0.2700000D-02 0.8100000D-02
EXPONENTS  0.2430000D-01 0.7290000D-01 0.2187000D+00 0.6561000D+00 0.1968300D+01
EXPONENTS  0.1000000D-03 0.1000000D-03 0.1000000D-03 0.3000000D-03 0.3000000D-03
EXPONENTS  0.3000000D-03 0.9000000D-03 0.9000000D-03 0.9000000D-03 0.2700000D-02
EXPONENTS  0.2700000D-02 0.2700000D-02 0.1000000D-03 0.1000000D-03 0.1000000D-03
EXPONENTS  0.1000000D-03 0.1000000D-03 0.1000000D-03 0.3000000D-03 0.3000000D-03
EXPONENTS  0.3000000D-03 0.3000000D-03 0.3000000D-03 0.3000000D-03 0.1000000D-03
EXPONENTS  0.3000000D-03 0.9000000D-03 0.2700000D-02 0.8100000D-02 0.2430000D-01
EXPONENTS  0.7290000D-01 0.2187000D+00 0.6561000D+00 0.1968300D+01 0.1000000D-03
EXPONENTS  0.1000000D-03 0.1000000D-03 0.3000000D-03 0.3000000D-03 0.3000000D-03
EXPONENTS  0.9000000D-03 0.9000000D-03 0.9000000D-03 0.2700000D-02 0.2700000D-02
EXPONENTS  0.2700000D-02 0.1000000D-03 0.1000000D-03 0.1000000D-03 0.1000000D-03
EXPONENTS  0.1000000D-03 0.1000000D-03 0.3000000D-03 0.3000000D-03 0.3000000D-03
EXPONENTS  0.3000000D-03 0.3000000D-03 0.3000000D-03
MO    1     MO 0.0        OCC NO =    1.0000000  ORB. ENERGY =   -0.002898
  0.23254154D-05  0.27468231D-04 -0.13199255D-03 -0.17058903D-02 -0.56412314D-02
 -0.86034602D-02 -0.12075508D-01  0.22271393D-01  0.34859876D-02 -0.11521317D-03
 -0.73349651D-07 -0.00000000D+00  0.00000000D+00 -0.33469433D-06 -0.00000000D+00
  0.00000000D+00 -0.11792643D-05  0.00000000D+00 -0.00000000D+00 -0.77375379D-04
 -0.00000000D+00  0.00000000D+00 -0.25199736D-09 -0.32245273D-10 -0.32245273D-10
 -0.00000000D+00  0.00000000D+00 -0.00000000D+00 -0.89498509D-08 -0.20924305D-08
 -0.20924305D-08 -0.00000000D+00  0.00000000D+00  0.00000000D+00  0.23254154D-05
  0.27468231D-04 -0.13199255D-03 -0.17058903D-02 -0.56412314D-02 -0.86034602D-02
 -0.12075508D-01  0.22271393D-01  0.34859876D-02 -0.11521317D-03  0.73349651D-07
  0.00000000D+00 -0.00000000D+00  0.33469433D-06  0.00000000D+00 -0.00000000D+00
  0.11792643D-05 -0.00000000D+00  0.00000000D+00  0.77375379D-04  0.00000000D+00
 -0.00000000D+00 -0.25199736D-09 -0.32245273D-10 -0.32245273D-10  0.00000000D+00
  0.00000000D+00 -0.00000000D+00 -0.89498509D-08 -0.20924305D-08 -0.20924305D-08
 -0.00000000D+00  0.00000000D+00  0.00000000D+00
MO    2     MO 0.0        OCC NO =    0.0000000  ORB. ENERGY =   -0.002657
  0.77025644D-05 -0.11898760D-02  0.15986519D-05 -0.21983266D-02 -0.53710993D-02
 -0.94389802D-02 -0.12229087D-01  0.22956976D-01  0.37601138D-02 -0.17299741D-03
 -0.10488915D-06  0.00000000D+00 -0.00000000D+00 -0.17638348D-04 -0.00000000D+00
 -0.00000000D+00  0.76709848D-05 -0.00000000D+00  0.00000000D+00 -0.10309331D-03
  0.00000000D+00 -0.00000000D+00 -0.13526259D-08 -0.12252924D-08 -0.12252924D-08
  0.00000000D+00 -0.00000000D+00 -0.00000000D+00 -0.97332100D-07 -0.20572734D-07
 -0.20572734D-07  0.00000000D+00 -0.00000000D+00  0.00000000D+00 -0.77025644D-05
  0.11898760D-02 -0.15986519D-05  0.21983266D-02  0.53710993D-02  0.94389802D-02
  0.12229087D-01 -0.22956976D-01 -0.37601138D-02  0.17299741D-03 -0.10488915D-06
 -0.00000000D+00  0.00000000D+00 -0.17638348D-04  0.00000000D+00 -0.00000000D+00
  0.76709848D-05 -0.00000000D+00  0.00000000D+00 -0.10309331D-03  0.00000000D+00
 -0.00000000D+00  0.13526259D-08  0.12252924D-08  0.12252924D-08  0.00000000D+00
 -0.00000000D+00  0.00000000D+00  0.97332100D-07  0.20572734D-07  0.20572734D-07
 -0.00000000D+00  0.00000000D+00  0.00000000D+00
MO    3     MO 0.0        OCC NO =    0.0000000  ORB. ENERGY =    0.004484
  0.44101175D-03  0.20452333D-03 -0.35298874D-02  0.46409419D-02  0.16746505D-02
  0.53732839D-02  0.42953862D-02 -0.91211402D-02 -0.19277320D-02  0.20505765D-03
 -0.14180992D-04 -0.00000000D+00  0.00000000D+00  0.17916719D-04  0.00000000D+00
 -0.00000000D+00 -0.10055440D-03 -0.00000000D+00 -0.00000000D+00  0.29260836D-04
  0.00000000D+00  0.00000000D+00 -0.66152711D-07 -0.45945474D-08 -0.45945474D-08
  0.00000000D+00  0.00000000D+00 -0.00000000D+00  0.16254009D-07 -0.10484852D-06
 -0.10484852D-06 -0.00000000D+00  0.00000000D+00  0.00000000D+00  0.44101175D-03
  0.20452333D-03 -0.35298874D-02  0.46409419D-02  0.16746505D-02  0.53732839D-02
  0.42953862D-02 -0.91211402D-02 -0.19277320D-02  0.20505765D-03  0.14180992D-04
  0.00000000D+00 -0.00000000D+00 -0.17916720D-04  0.00000000D+00  0.00000000D+00
  0.10055440D-03 -0.00000000D+00 -0.00000000D+00 -0.29260836D-04  0.00000000D+00
  0.00000000D+00 -0.66152711D-07 -0.45945474D-08 -0.45945474D-08 -0.00000000D+00
  0.00000000D+00  0.00000000D+00  0.16254009D-07 -0.10484852D-06 -0.10484852D-06
  0.00000000D+00 -0.00000000D+00  0.00000000D+00
MO    4     MO 0.0        OCC NO =    0.0000000  ORB. ENERGY =    0.008294
 -0.00000000D+00  0.00000000D+00 -0.00000000D+00  0.00000000D+00  0.00000000D+00
  0.00000000D+00  0.00000000D+00 -0.00000000D+00 -0.00000000D+00 -0.00000000D+00
  0.00000000D+00 -0.31573437D-06 -0.35030358D-06  0.00000000D+00  0.35490812D-05
  0.39376638D-05 -0.00000000D+00 -0.46559348D-04 -0.51657044D-04  0.00000000D+00
 -0.24299135D-03 -0.26959603D-03  0.00000000D+00  0.00000000D+00  0.00000000D+00
  0.45783686D-08  0.50796457D-08  0.00000000D+00  0.00000000D+00  0.00000000D+00
  0.00000000D+00 -0.67716473D-07 -0.75130615D-07 -0.00000000D+00  0.00000000D+00
 -0.00000000D+00  0.00000000D+00 -0.00000000D+00 -0.00000000D+00 -0.00000000D+00
 -0.00000000D+00  0.00000000D+00  0.00000000D+00 -0.00000000D+00 -0.00000000D+00
 -0.31573437D-06 -0.35030358D-06  0.00000000D+00  0.35490812D-05  0.39376638D-05
 -0.00000000D+00 -0.46559348D-04 -0.51657044D-04  0.00000000D+00 -0.24299135D-03
 -0.26959603D-03 -0.00000000D+00 -0.00000000D+00 -0.00000000D+00 -0.45783686D-08
 -0.50796457D-08 -0.00000000D+00 -0.00000000D+00 -0.00000000D+00 -0.00000000D+00
  0.67716473D-07  0.75130615D-07  0.00000000D+00
MO    5     MO 0.0        OCC NO =    0.0000000  ORB. ENERGY =    0.008294
 -0.00000000D+00  0.00000000D+00 -0.00000000D+00  0.00000000D+00  0.00000000D+00
  0.00000000D+00  0.00000000D+00  0.00000000D+00 -0.00000000D+00  0.00000000D+00
 -0.00000000D+00  0.35030358D-06 -0.31573437D-06  0.00000000D+00 -0.39376638D-05
  0.35490812D-05 -0.00000000D+00  0.51657044D-04 -0.46559348D-04 -0.00000000D+00
  0.26959603D-03 -0.24299135D-03 -0.00000000D+00  0.00000000D+00  0.00000000D+00
 -0.50796457D-08  0.45783686D-08  0.00000000D+00  0.00000000D+00  0.00000000D+00
  0.00000000D+00  0.75130615D-07 -0.67716473D-07 -0.00000000D+00  0.00000000D+00
 -0.00000000D+00  0.00000000D+00 -0.00000000D+00  0.00000000D+00 -0.00000000D+00
  0.00000000D+00 -0.00000000D+00 -0.00000000D+00  0.00000000D+00  0.00000000D+00
  0.35030358D-06 -0.31573437D-06  0.00000000D+00 -0.39376638D-05  0.35490812D-05
 -0.00000000D+00  0.51657044D-04 -0.46559348D-04  0.00000000D+00  0.26959603D-03
 -0.24299135D-03 -0.00000000D+00 -0.00000000D+00 -0.00000000D+00  0.50796457D-08
 -0.45783686D-08 -0.00000000D+00 -0.00000000D+00 -0.00000000D+00 -0.00000000D+00
 -0.75130615D-07  0.67716473D-07  0.00000000D+00
MO    6     MO 0.0        OCC NO =    0.0000000  ORB. ENERGY =    0.010221
  0.12456293D-03 -0.26748142D-01  0.65153838D-02  0.18820915D-02 -0.10807347D-01
 -0.20194159D-02 -0.83338436D-02  0.13087404D-01  0.12002045D-02  0.22078576D-03
  0.14819442D-05  0.00000000D+00  0.00000000D+00 -0.37796052D-03 -0.00000000D+00
 -0.00000000D+00  0.15339747D-03  0.00000000D+00 -0.00000000D+00  0.36944994D-03
 -0.00000000D+00 -0.00000000D+00  0.13781659D-07  0.96029110D-08  0.96029110D-08
  0.00000000D+00  0.00000000D+00  0.00000000D+00 -0.15511981D-05  0.10937015D-06
  0.10937015D-06 -0.00000000D+00  0.00000000D+00 -0.00000000D+00 -0.12456293D-03
  0.26748142D-01 -0.65153838D-02 -0.18820915D-02  0.10807347D-01  0.20194159D-02
  0.83338436D-02 -0.13087404D-01 -0.12002045D-02 -0.22078576D-03  0.14819442D-05
 -0.00000000D+00 -0.00000000D+00 -0.37796052D-03  0.00000000D+00  0.00000000D+00
  0.15339747D-03 -0.00000000D+00 -0.00000000D+00  0.36944994D-03  0.00000000D+00
  0.00000000D+00 -0.13781659D-07 -0.96029110D-08 -0.96029110D-08  0.00000000D+00
  0.00000000D+00 -0.00000000D+00  0.15511981D-05 -0.10937015D-06 -0.10937015D-06
 -0.00000000D+00 -0.00000000D+00  0.00000000D+00
MO    7     MO 0.0        OCC NO =    0.0000000  ORB. ENERGY =    0.010524
  0.00000000D+00 -0.00000000D+00 -0.00000000D+00 -0.00000000D+00  0.00000000D+00
  0.00000000D+00  0.00000000D+00 -0.00000000D+00 -0.00000000D+00  0.00000000D+00
 -0.00000000D+00 -0.21235145D-06  0.17719368D-05 -0.00000000D+00  0.68836574D-06
 -0.57439710D-05  0.00000000D+00 -0.21605131D-06  0.18028140D-05 -0.00000000D+00
  0.77350806D-04 -0.64544300D-03 -0.00000000D+00 -0.00000000D+00 -0.00000000D+00
 -0.10242062D-08  0.85463392D-08 -0.00000000D+00 -0.00000000D+00 -0.00000000D+00
 -0.00000000D+00  0.10060682D-07 -0.83949927D-07  0.00000000D+00 -0.00000000D+00
  0.00000000D+00  0.00000000D+00  0.00000000D+00 -0.00000000D+00 -0.00000000D+00
 -0.00000000D+00  0.00000000D+00 -0.00000000D+00  0.00000000D+00 -0.00000000D+00
  0.21235145D-06 -0.17719368D-05 -0.00000000D+00 -0.68836574D-06  0.57439710D-05
 -0.00000000D+00  0.21605131D-06 -0.18028140D-05 -0.00000000D+00 -0.77350806D-04
  0.64544300D-03  0.00000000D+00  0.00000000D+00  0.00000000D+00 -0.10242062D-08
  0.85463392D-08  0.00000000D+00  0.00000000D+00  0.00000000D+00  0.00000000D+00
  0.10060682D-07 -0.83949927D-07  0.00000000D+00
MO    8     MO 0.0        OCC NO =    0.0000000  ORB. ENERGY =    0.010524
 -0.00000000D+00  0.00000000D+00  0.00000000D+00 -0.00000000D+00  0.00000000D+00
 -0.00000000D+00  0.00000000D+00 -0.00000000D+00  0.00000000D+00 -0.00000000D+00
  0.00000000D+00 -0.17719368D-05 -0.21235145D-06  0.00000000D+00  0.57439710D-05
  0.68836574D-06  0.00000000D+00 -0.18028140D-05 -0.21605131D-06 -0.00000000D+00
  0.64544300D-03  0.77350806D-04  0.00000000D+00  0.00000000D+00  0.00000000D+00
 -0.85463392D-08 -0.10242062D-08  0.00000000D+00  0.00000000D+00 -0.00000000D+00
 -0.00000000D+00  0.83949927D-07  0.10060682D-07 -0.00000000D+00 -0.00000000D+00
 -0.00000000D+00  0.00000000D+00 -0.00000000D+00  0.00000000D+00 -0.00000000D+00
  0.00000000D+00 -0.00000000D+00 -0.00000000D+00 -0.00000000D+00 -0.00000000D+00
  0.17719368D-05  0.21235145D-06  0.00000000D+00 -0.57439710D-05 -0.68836574D-06
 -0.00000000D+00  0.18028140D-05  0.21605131D-06  0.00000000D+00 -0.64544300D-03
 -0.77350806D-04  0.00000000D+00 -0.00000000D+00 -0.00000000D+00 -0.85463392D-08
 -0.10242062D-08 -0.00000000D+00 -0.00000000D+00 -0.00000000D+00 -0.00000000D+00
  0.83949927D-07  0.10060682D-07  0.00000000D+00
MO    9     MO 0.0        OCC NO =    0.0000000  ORB. ENERGY =    0.010614
  0.23591407D-03 -0.43570726D-03 -0.21490761D-02  0.11598371D-01 -0.13961645D-01
  0.23153660D-02 -0.82745566D-02  0.10721496D-01 -0.55219080D-04  0.51799737D-03
 -0.18127799D-04 -0.00000000D+00 -0.00000000D+00  0.19412161D-04  0.00000000D+00
 -0.00000000D+00 -0.14363728D-03 -0.00000000D+00 -0.00000000D+00  0.68464649D-03
  0.00000000D+00  0.00000000D+00 -0.73939014D-07  0.51790261D-08  0.51790261D-08
 -0.00000000D+00 -0.00000000D+00 -0.00000000D+00  0.23596099D-06  0.12036412D-06
  0.12036412D-06  0.00000000D+00 -0.00000000D+00  0.00000000D+00  0.23591407D-03
 -0.43570726D-03 -0.21490761D-02  0.11598371D-01 -0.13961645D-01  0.23153660D-02
 -0.82745566D-02  0.10721496D-01 -0.55219080D-04  0.51799737D-03  0.18127799D-04
  0.00000000D+00  0.00000000D+00 -0.19412161D-04 -0.00000000D+00  0.00000000D+00
  0.14363728D-03  0.00000000D+00 -0.00000000D+00 -0.68464649D-03 -0.00000000D+00
  0.00000000D+00 -0.73939014D-07  0.51790261D-08  0.51790261D-08 -0.00000000D+00
 -0.00000000D+00  0.00000000D+00  0.23596099D-06  0.12036412D-06  0.12036412D-06
  0.00000000D+00 -0.00000000D+00 -0.00000000D+00
MO   10     MO 0.0        OCC NO =    0.0000000  ORB. ENERGY =    0.015360
 -0.00000000D+00  0.00000000D+00 -0.00000000D+00  0.00000000D+00 -0.00000000D+00
 -0.00000000D+00  0.00000000D+00 -0.00000000D+00  0.00000000D+00 -0.00000000D+00
  0.00000000D+00  0.10860773D-05 -0.63569907D-07  0.00000000D+00 -0.13253034D-04
  0.77572162D-06 -0.00000000D+00  0.21762760D-03 -0.12738099D-04  0.00000000D+00
 -0.83077131D-03  0.48626400D-04  0.00000000D+00  0.00000000D+00  0.00000000D+00
 -0.11225291D-07  0.65703462D-09  0.00000000D+00  0.00000000D+00  0.00000000D+00
  0.00000000D+00  0.19640777D-06 -0.11496070D-07 -0.00000000D+00  0.00000000D+00
 -0.00000000D+00  0.00000000D+00 -0.00000000D+00  0.00000000D+00 -0.00000000D+00
  0.00000000D+00 -0.00000000D+00 -0.00000000D+00 -0.00000000D+00 -0.00000000D+00
  0.10860773D-05 -0.63569907D-07  0.00000000D+00 -0.13253034D-04  0.77572162D-06
 -0.00000000D+00  0.21762760D-03 -0.12738099D-04  0.00000000D+00 -0.83077131D-03
  0.48626400D-04  0.00000000D+00 -0.00000000D+00 -0.00000000D+00  0.11225291D-07
 -0.65703462D-09 -0.00000000D+00 -0.00000000D+00 -0.00000000D+00 -0.00000000D+00
 -0.19640777D-06  0.11496070D-07  0.00000000D+00
MO   11     MO 0.0        OCC NO =    0.0000000  ORB. ENERGY =    0.015360
  0.00000000D+00 -0.00000000D+00  0.00000000D+00 -0.00000000D+00  0.00000000D+00
 -0.00000000D+00  0.00000000D+00 -0.00000000D+00  0.00000000D+00 -0.00000000D+00
 -0.00000000D+00 -0.63569907D-07 -0.10860773D-05 -0.00000000D+00  0.77572162D-06
  0.13253034D-04  0.00000000D+00 -0.12738099D-04 -0.21762760D-03 -0.00000000D+00
  0.48626400D-04  0.83077131D-03 -0.00000000D+00 -0.00000000D+00 -0.00000000D+00
  0.65703462D-09  0.11225291D-07  0.00000000D+00 -0.00000000D+00 -0.00000000D+00
 -0.00000000D+00 -0.11496070D-07 -0.19640777D-06 -0.00000000D+00  0.00000000D+00
  0.00000000D+00 -0.00000000D+00  0.00000000D+00 -0.00000000D+00  0.00000000D+00
 -0.00000000D+00  0.00000000D+00 -0.00000000D+00  0.00000000D+00  0.00000000D+00
 -0.63569907D-07 -0.10860773D-05 -0.00000000D+00  0.77572162D-06  0.13253034D-04
  0.00000000D+00 -0.12738099D-04 -0.21762760D-03 -0.00000000D+00  0.48626400D-04
  0.83077131D-03 -0.00000000D+00  0.00000000D+00  0.00000000D+00 -0.65703462D-09
 -0.11225291D-07 -0.00000000D+00  0.00000000D+00 -0.00000000D+00 -0.00000000D+00
  0.11496070D-07  0.19640777D-06  0.00000000D+00
MO   12     MO 0.0        OCC NO =    0.0000000  ORB. ENERGY =    0.016178
  0.21777282D-03 -0.40088471D-01  0.82790949D-02 -0.95013239D-02  0.74811774D-02
 -0.23748715D-02  0.32666831D-02 -0.34785516D-02  0.41929716D-03 -0.29860913D-03
 -0.21794833D-06  0.00000000D+00  0.00000000D+00 -0.57796211D-03 -0.00000000D+00
 -0.00000000D+00  0.30179898D-03  0.00000000D+00  0.00000000D+00 -0.77388012D-03
 -0.00000000D+00 -0.00000000D+00 -0.88804480D-08 -0.89160559D-08 -0.89160559D-08
  0.00000000D+00  0.00000000D+00  0.00000000D+00 -0.27127614D-05 -0.20548467D-06
 -0.20548467D-06 -0.00000000D+00 -0.00000000D+00 -0.00000000D+00 -0.21777282D-03
  0.40088471D-01 -0.82790949D-02  0.95013239D-02 -0.74811774D-02  0.23748715D-02
 -0.32666831D-02  0.34785516D-02 -0.41929716D-03  0.29860913D-03 -0.21794833D-06
 -0.00000000D+00 -0.00000000D+00 -0.57796211D-03  0.00000000D+00  0.00000000D+00
  0.30179898D-03 -0.00000000D+00 -0.00000000D+00 -0.77388012D-03  0.00000000D+00
  0.00000000D+00  0.88804480D-08  0.89160559D-08  0.89160559D-08  0.00000000D+00
  0.00000000D+00 -0.00000000D+00  0.27127614D-05  0.20548467D-06  0.20548467D-06
 -0.00000000D+00 -0.00000000D+00  0.00000000D+00
MO   13     MO 0.0        OCC NO =    0.0000000  ORB. ENERGY =    0.017111
  0.10690883D-03  0.75960112D-05 -0.83840173D-03  0.10484995D-01 -0.14574505D-01
 -0.92577292D-03 -0.79684798D-02  0.11971897D-01  0.89588125D-03  0.27217453D-03
 -0.54169236D-05 -0.00000000D+00 -0.00000000D+00  0.23186854D-05  0.00000000D+00
 -0.00000000D+00 -0.41808765D-04 -0.00000000D+00 -0.00000000D+00 -0.26105643D-03
 -0.00000000D+00  0.00000000D+00 -0.22721421D-07  0.11759624D-09  0.11759624D-09
 -0.00000000D+00 -0.00000000D+00 -0.00000000D+00 -0.10160151D-07  0.12478270D-07
  0.12478270D-07  0.00000000D+00 -0.00000000D+00  0.00000000D+00  0.10690883D-03
  0.75960112D-05 -0.83840173D-03  0.10484995D-01 -0.14574505D-01 -0.92577292D-03
 -0.79684798D-02  0.11971897D-01  0.89588125D-03  0.27217453D-03  0.54169236D-05
  0.00000000D+00  0.00000000D+00 -0.23186854D-05 -0.00000000D+00  0.00000000D+00
  0.41808765D-04  0.00000000D+00  0.00000000D+00  0.26105643D-03 -0.00000000D+00
 -0.00000000D+00 -0.22721421D-07  0.11759624D-09  0.11759624D-09 -0.00000000D+00
 -0.00000000D+00  0.00000000D+00 -0.10160151D-07  0.12478270D-07  0.12478270D-07
  0.00000000D+00 -0.00000000D+00 -0.00000000D+00
MO   14     MO 0.0        OCC NO =    0.0000000  ORB. ENERGY =    0.019766
 -0.17088193D-03  0.33935401D-01 -0.11837074D-01  0.19697611D-01 -0.19358286D-01
 -0.75334488D-04 -0.92257387D-02  0.13331494D-01  0.76099769D-03  0.38156072D-03
 -0.91588212D-06 -0.00000000D+00 -0.00000000D+00  0.48527091D-03  0.00000000D+00
  0.00000000D+00 -0.33145416D-03 -0.00000000D+00 -0.00000000D+00 -0.15649098D-03
  0.00000000D+00  0.00000000D+00 -0.37632839D-08 -0.42923296D-08 -0.42923296D-08
 -0.00000000D+00 -0.00000000D+00 -0.00000000D+00  0.21147558D-05  0.37933716D-07
  0.37933716D-07  0.00000000D+00  0.00000000D+00  0.00000000D+00  0.17088193D-03
 -0.33935401D-01  0.11837074D-01 -0.19697611D-01  0.19358286D-01  0.75334488D-04
  0.92257387D-02 -0.13331494D-01 -0.76099769D-03 -0.38156072D-03 -0.91588212D-06
  0.00000000D+00  0.00000000D+00  0.48527091D-03 -0.00000000D+00 -0.00000000D+00
 -0.33145416D-03  0.00000000D+00  0.00000000D+00 -0.15649098D-03 -0.00000000D+00
 -0.00000000D+00  0.37632839D-08  0.42923296D-08  0.42923296D-08 -0.00000000D+00
 -0.00000000D+00  0.00000000D+00 -0.21147558D-05 -0.37933716D-07 -0.37933716D-07
  0.00000000D+00  0.00000000D+00 -0.00000000D+00
MO   15     MO 0.0        OCC NO =    0.0000000  ORB. ENERGY =    0.021929
  0.00000000D+00 -0.00000000D+00  0.00000000D+00  0.00000000D+00 -0.00000000D+00
 -0.00000000D+00 -0.00000000D+00  0.00000000D+00 -0.00000000D+00  0.00000000D+00
 -0.00000000D+00  0.66541672D-04 -0.78648266D-05 -0.00000000D+00 -0.60874349D-04
  0.71949827D-05  0.00000000D+00  0.35711695D-03 -0.42209082D-04 -0.00000000D+00
 -0.69716779D-03  0.82401050D-04 -0.00000000D+00 -0.00000000D+00 -0.00000000D+00
  0.27877266D-06 -0.32949255D-07 -0.00000000D+00 -0.00000000D+00  0.00000000D+00
  0.00000000D+00 -0.36581078D-06  0.43236638D-07  0.00000000D+00 -0.00000000D+00
  0.00000000D+00  0.00000000D+00 -0.00000000D+00  0.00000000D+00 -0.00000000D+00
  0.00000000D+00 -0.00000000D+00  0.00000000D+00 -0.00000000D+00  0.00000000D+00
 -0.66541672D-04  0.78648266D-05 -0.00000000D+00  0.60874349D-04 -0.71949827D-05
  0.00000000D+00 -0.35711695D-03  0.42209082D-04 -0.00000000D+00  0.69716779D-03
 -0.82401050D-04 -0.00000000D+00  0.00000000D+00  0.00000000D+00  0.27877266D-06
 -0.32949255D-07 -0.00000000D+00  0.00000000D+00  0.00000000D+00  0.00000000D+00
 -0.36581078D-06  0.43236638D-07 -0.00000000D+00
MO   16     MO 0.0        OCC NO =    0.0000000  ORB. ENERGY =    0.021929
  0.00000000D+00  0.00000000D+00 -0.00000000D+00 -0.00000000D+00  0.00000000D+00
  0.00000000D+00  0.00000000D+00 -0.00000000D+00 -0.00000000D+00 -0.00000000D+00
  0.00000000D+00 -0.78648266D-05 -0.66541672D-04  0.00000000D+00  0.71949827D-05
  0.60874349D-04 -0.00000000D+00 -0.42209082D-04 -0.35711695D-03  0.00000000D+00
  0.82401050D-04  0.69716779D-03  0.00000000D+00  0.00000000D+00  0.00000000D+00
 -0.32949255D-07 -0.27877266D-06 -0.00000000D+00  0.00000000D+00  0.00000000D+00
  0.00000000D+00  0.43236638D-07  0.36581078D-06  0.00000000D+00 -0.00000000D+00
 -0.00000000D+00  0.00000000D+00  0.00000000D+00 -0.00000000D+00 -0.00000000D+00
 -0.00000000D+00  0.00000000D+00  0.00000000D+00  0.00000000D+00  0.00000000D+00
  0.78648266D-05  0.66541672D-04  0.00000000D+00 -0.71949827D-05 -0.60874349D-04
 -0.00000000D+00  0.42209082D-04  0.35711695D-03  0.00000000D+00 -0.82401050D-04
 -0.69716779D-03 -0.00000000D+00 -0.00000000D+00 -0.00000000D+00 -0.32949255D-07
 -0.27877266D-06  0.00000000D+00 -0.00000000D+00 -0.00000000D+00 -0.00000000D+00
  0.43236638D-07  0.36581078D-06 -0.00000000D+00
MO   17     MO 0.0        OCC NO =    0.0000000  ORB. ENERGY =    0.027513
  0.61885927D-03 -0.19497325D-02  0.67388773D-02 -0.10919698D-01  0.86192813D-02
  0.18832302D-02  0.31815917D-02 -0.55126790D-02 -0.76548671D-03 -0.15609679D-04
 -0.43087234D-04  0.00000000D+00  0.00000000D+00  0.44657953D-04 -0.00000000D+00
 -0.00000000D+00 -0.24763230D-03  0.00000000D+00  0.00000000D+00  0.55451103D-03
 -0.00000000D+00 -0.00000000D+00 -0.18020728D-06  0.10264228D-07  0.10264228D-07
  0.00000000D+00  0.00000000D+00 -0.00000000D+00  0.65489015D-06  0.33678632D-06
  0.33678632D-06 -0.00000000D+00 -0.00000000D+00  0.00000000D+00  0.61885927D-03
 -0.19497325D-02  0.67388773D-02 -0.10919698D-01  0.86192813D-02  0.18832302D-02
  0.31815917D-02 -0.55126790D-02 -0.76548671D-03 -0.15609679D-04  0.43087234D-04
 -0.00000000D+00 -0.00000000D+00 -0.44657953D-04  0.00000000D+00  0.00000000D+00
  0.24763230D-03 -0.00000000D+00 -0.00000000D+00 -0.55451103D-03 -0.00000000D+00
  0.00000000D+00 -0.18020728D-06  0.10264228D-07  0.10264228D-07  0.00000000D+00
  0.00000000D+00  0.00000000D+00  0.65489015D-06  0.33678632D-06  0.33678632D-06
 -0.00000000D+00 -0.00000000D+00 -0.00000000D+00
MO   18     MO 0.0        OCC NO =    0.0000000  ORB. ENERGY =    0.029113
  0.38429316D-03 -0.61495308D-01  0.16433511D-02  0.48213685D-02 -0.44619116D-02
 -0.53130459D-03 -0.17086229D-02  0.26941096D-02  0.26208280D-03  0.44033981D-04
 -0.42731661D-05  0.00000000D+00  0.00000000D+00 -0.91547607D-03 -0.00000000D+00
 -0.00000000D+00  0.59211331D-03  0.00000000D+00  0.00000000D+00 -0.62439822D-03
 -0.00000000D+00  0.00000000D+00 -0.61699919D-07 -0.51988188D-07 -0.51988188D-07
  0.00000000D+00  0.00000000D+00  0.00000000D+00 -0.49091963D-05 -0.97390609D-06
 -0.97390609D-06 -0.00000000D+00 -0.00000000D+00 -0.00000000D+00 -0.38429316D-03
  0.61495308D-01 -0.16433511D-02 -0.48213685D-02  0.44619116D-02  0.53130459D-03
  0.17086229D-02 -0.26941096D-02 -0.26208280D-03 -0.44033981D-04 -0.42731661D-05
 -0.00000000D+00 -0.00000000D+00 -0.91547607D-03  0.00000000D+00  0.00000000D+00
  0.59211331D-03 -0.00000000D+00 -0.00000000D+00 -0.62439822D-03  0.00000000D+00
 -0.00000000D+00  0.61699919D-07  0.51988188D-07  0.51988188D-07  0.00000000D+00
  0.00000000D+00 -0.00000000D+00  0.49091963D-05  0.97390609D-06  0.97390609D-06
 -0.00000000D+00 -0.00000000D+00  0.00000000D+00
MO   19     MO 0.0        OCC NO =    0.0000000  ORB. ENERGY =    0.030359
 -0.39159947D-02 -0.38995001D-02  0.17666572D-01 -0.17606382D-01  0.90618032D-02
  0.43688924D-02  0.23914263D-02 -0.56559633D-02 -0.13990046D-02  0.17966527D-03
  0.59306848D-04  0.00000000D+00 -0.00000000D+00 -0.10589690D-03 -0.00000000D+00
  0.00000000D+00  0.11895208D-03  0.00000000D+00 -0.00000000D+00 -0.31042182D-03
 -0.00000000D+00  0.00000000D+00  0.35639462D-06  0.90673180D-07  0.90673180D-07
  0.00000000D+00 -0.00000000D+00 -0.00000000D+00  0.83479146D-06  0.19114507D-05
  0.19114507D-05 -0.00000000D+00  0.00000000D+00  0.00000000D+00 -0.39159947D-02
 -0.38995001D-02  0.17666572D-01 -0.17606382D-01  0.90618032D-02  0.43688924D-02
  0.23914263D-02 -0.56559633D-02 -0.13990046D-02  0.17966527D-03 -0.59306848D-04
 -0.00000000D+00  0.00000000D+00  0.10589690D-03  0.00000000D+00 -0.00000000D+00
 -0.11895208D-03 -0.00000000D+00  0.00000000D+00  0.31042182D-03  0.00000000D+00
  0.00000000D+00  0.35639462D-06  0.90673180D-07  0.90673180D-07  0.00000000D+00
 -0.00000000D+00 -0.00000000D+00  0.83479146D-06  0.19114507D-05  0.19114507D-05
 -0.00000000D+00  0.00000000D+00 -0.00000000D+00
MO   20     MO 0.0        OCC NO =    0.0000000  ORB. ENERGY =    0.038914
 -0.21283667D-03 -0.59701839D-01  0.17456128D-01 -0.11435780D-01  0.74515123D-03
  0.11227153D-01 -0.11423666D-02 -0.37415343D-02 -0.27063844D-02  0.68188715D-03
  0.41522398D-04  0.00000000D+00  0.00000000D+00 -0.82121603D-03 -0.00000000D+00
 -0.00000000D+00 -0.12376608D-03  0.00000000D+00  0.00000000D+00  0.15750119D-03
 -0.00000000D+00 -0.00000000D+00  0.60150140D-06  0.53101908D-06  0.53101908D-06
  0.00000000D+00  0.00000000D+00  0.00000000D+00  0.36484909D-06  0.40599239D-05
  0.40599239D-05 -0.00000000D+00 -0.00000000D+00 -0.00000000D+00  0.21283667D-03
  0.59701839D-01 -0.17456128D-01  0.11435780D-01 -0.74515123D-03 -0.11227153D-01
  0.11423666D-02  0.37415343D-02  0.27063844D-02 -0.68188715D-03  0.41522398D-04
 -0.00000000D+00 -0.00000000D+00 -0.82121603D-03  0.00000000D+00  0.00000000D+00
 -0.12376608D-03 -0.00000000D+00 -0.00000000D+00  0.15750119D-03  0.00000000D+00
  0.00000000D+00 -0.60150140D-06 -0.53101908D-06 -0.53101908D-06  0.00000000D+00
  0.00000000D+00 -0.00000000D+00 -0.36484909D-06 -0.40599239D-05 -0.40599239D-05
 -0.00000000D+00 -0.00000000D+00  0.00000000D+00
MO   21     MO 0.0        OCC NO =    0.0000000  ORB. ENERGY =    0.040821
 -0.00000000D+00  0.00000000D+00 -0.00000000D+00  0.00000000D+00  0.00000000D+00
 -0.00000000D+00  0.00000000D+00  0.00000000D+00  0.00000000D+00 -0.00000000D+00
 -0.00000000D+00 -0.00000000D+00 -0.00000000D+00  0.00000000D+00  0.00000000D+00
  0.00000000D+00 -0.00000000D+00 -0.00000000D+00 -0.00000000D+00  0.00000000D+00
  0.00000000D+00  0.00000000D+00  0.00000000D+00  0.37148971D-09 -0.37148971D-09
 -0.00000000D+00 -0.00000000D+00  0.99278478D-07  0.00000000D+00 -0.49184836D-08
  0.49184836D-08  0.00000000D+00  0.00000000D+00 -0.13144379D-05  0.00000000D+00
 -0.00000000D+00  0.00000000D+00 -0.00000000D+00 -0.00000000D+00  0.00000000D+00
 -0.00000000D+00 -0.00000000D+00 -0.00000000D+00  0.00000000D+00  0.00000000D+00
  0.00000000D+00  0.00000000D+00  0.00000000D+00 -0.00000000D+00 -0.00000000D+00
 -0.00000000D+00  0.00000000D+00  0.00000000D+00  0.00000000D+00 -0.00000000D+00
  0.00000000D+00 -0.00000000D+00  0.37148971D-09 -0.37148971D-09 -0.00000000D+00
 -0.00000000D+00  0.99278478D-07 -0.00000000D+00 -0.49184836D-08  0.49184836D-08
  0.00000000D+00  0.00000000D+00 -0.13144379D-05
MO   22     MO 0.0        OCC NO =    0.0000000  ORB. ENERGY =    0.040821
 -0.00000000D+00  0.00000000D+00  0.00000000D+00 -0.00000000D+00  0.00000000D+00
  0.00000000D+00  0.00000000D+00 -0.00000000D+00 -0.00000000D+00  0.00000000D+00
  0.00000000D+00  0.00000000D+00 -0.00000000D+00  0.00000000D+00  0.00000000D+00
  0.00000000D+00  0.00000000D+00 -0.00000000D+00  0.00000000D+00 -0.00000000D+00
  0.00000000D+00 -0.00000000D+00  0.00000000D+00  0.49639239D-07 -0.49639239D-07
  0.00000000D+00 -0.00000000D+00 -0.74297835D-09  0.00000000D+00 -0.65721897D-06
  0.65721897D-06  0.00000000D+00  0.00000000D+00  0.98369724D-08 -0.00000000D+00
 -0.00000000D+00  0.00000000D+00 -0.00000000D+00  0.00000000D+00 -0.00000000D+00
  0.00000000D+00 -0.00000000D+00  0.00000000D+00 -0.00000000D+00 -0.00000000D+00
 -0.00000000D+00  0.00000000D+00  0.00000000D+00 -0.00000000D+00 -0.00000000D+00
 -0.00000000D+00 -0.00000000D+00  0.00000000D+00  0.00000000D+00  0.00000000D+00
 -0.00000000D+00  0.00000000D+00  0.49639239D-07 -0.49639239D-07  0.00000000D+00
 -0.00000000D+00 -0.74297835D-09 -0.00000000D+00 -0.65721897D-06  0.65721897D-06
  0.00000000D+00  0.00000000D+00  0.98369724D-08
MO   23     MO 0.0        OCC NO =    0.0000000  ORB. ENERGY =    0.042250
 -0.10757492D-02  0.15191545D+00 -0.73073422D-02  0.50570511D-02  0.32500149D-02
 -0.12311467D-01  0.23247481D-02  0.24660818D-02  0.27887766D-02 -0.76644945D-03
  0.20287501D-04 -0.00000000D+00 -0.00000000D+00  0.20263683D-02  0.00000000D+00
  0.00000000D+00  0.27478684D-04 -0.00000000D+00 -0.00000000D+00 -0.94363891D-04
  0.00000000D+00  0.00000000D+00  0.41681305D-06  0.47284562D-06  0.47284562D-06
 -0.00000000D+00 -0.00000000D+00 -0.00000000D+00  0.98976369D-05  0.44796767D-06
  0.44796767D-06  0.00000000D+00  0.00000000D+00  0.00000000D+00  0.10757492D-02
 -0.15191545D+00  0.73073422D-02 -0.50570511D-02 -0.32500149D-02  0.12311467D-01
 -0.23247481D-02 -0.24660818D-02 -0.27887766D-02  0.76644945D-03  0.20287501D-04
  0.00000000D+00  0.00000000D+00  0.20263683D-02 -0.00000000D+00 -0.00000000D+00
  0.27478684D-04  0.00000000D+00  0.00000000D+00 -0.94363891D-04 -0.00000000D+00
 -0.00000000D+00 -0.41681305D-06 -0.47284562D-06 -0.47284562D-06 -0.00000000D+00
 -0.00000000D+00  0.00000000D+00 -0.98976369D-05 -0.44796767D-06 -0.44796767D-06
  0.00000000D+00  0.00000000D+00 -0.00000000D+00
MO   24     MO 0.0        OCC NO =    0.0000000  ORB. ENERGY =    0.043099
  0.90236893D-02 -0.35351221D-02 -0.16158986D-02  0.54911443D-04 -0.11517882D-02
  0.28001788D-02 -0.61817699D-03 -0.42868372D-03 -0.62307988D-03  0.17698865D-03
 -0.22608479D-03  0.00000000D+00  0.00000000D+00  0.75076309D-04 -0.00000000D+00
 -0.00000000D+00 -0.58936438D-04  0.00000000D+00  0.00000000D+00  0.60406212D-04
 -0.00000000D+00 -0.00000000D+00 -0.12416348D-05 -0.17498915D-06 -0.17498915D-06
  0.00000000D+00  0.00000000D+00 -0.00000000D+00 -0.46229969D-06 -0.12617893D-05
 -0.12617893D-05 -0.00000000D+00 -0.00000000D+00  0.00000000D+00  0.90236893D-02
 -0.35351221D-02 -0.16158986D-02  0.54911443D-04 -0.11517882D-02  0.28001788D-02
 -0.61817699D-03 -0.42868372D-03 -0.62307988D-03  0.17698865D-03  0.22608479D-03
 -0.00000000D+00 -0.00000000D+00 -0.75076310D-04  0.00000000D+00  0.00000000D+00