 Molden2AIM, Version 3.1.0 (02/25/2015)           Time: Thu Oct 17 19:56:10 2024
GAUSSIAN             68 MOL ORBITALS     68 PRIMITIVES        2 NUCLEI
  Be   1    (CENTRE  1)   0.00000000  0.00000000  0.00000000  CHARGE =  4.0
  Be   2    (CENTRE  2)  55.80000000  0.00000000  0.00000000  CHARGE =  4.0
CENTRE ASSIGNMENTS    1  1  1  1  1  1  1  1  1  1  1  1  1  1  1  1  1  1  1  1
CENTRE ASSIGNMENTS    1  1  1  1  1  1  1  1  1  1  1  1  1  1  2  2  2  2  2  2
CENTRE ASSIGNMENTS    2  2  2  2  2  2  2  2  2  2  2  2  2  2  2  2  2  2  2  2
CENTRE ASSIGNMENTS    2  2  2  2  2  2  2  2
TYPE ASSIGNMENTS      1  1  1  1  1  1  1  1  1  1  2  3  4  2  3  4  2  3  4  2
TYPE ASSIGNMENTS      3  4  5  6  7  8  9 10  5  6  7  8  9 10  1  1  1  1  1  1
TYPE ASSIGNMENTS      1  1  1  1  2  3  4  2  3  4  2  3  4  2  3  4  5  6  7  8
TYPE ASSIGNMENTS      9 10  5  6  7  8  9 10
EXPONENTS  0.1000000D-03 0.3000000D-03 0.9000000D-03 0.2700000D-02 0.8100000D-02
EXPONENTS  0.2430000D-01 0.7290000D-01 0.2187000D+00 0.6561000D+00 0.1968300D+01
EXPONENTS  0.1000000D-03 0.1000000D-03 0.1000000D-03 0.3000000D-03 0.3000000D-03
EXPONENTS  0.3000000D-03 0.9000000D-03 0.9000000D-03 0.9000000D-03 0.2700000D-02
EXPONENTS  0.2700000D-02 0.2700000D-02 0.1000000D-03 0.1000000D-03 0.1000000D-03
EXPONENTS  0.1000000D-03 0.1000000D-03 0.1000000D-03 0.3000000D-03 0.3000000D-03
EXPONENTS  0.3000000D-03 0.3000000D-03 0.3000000D-03 0.3000000D-03 0.1000000D-03
EXPONENTS  0.3000000D-03 0.9000000D-03 0.2700000D-02 0.8100000D-02 0.2430000D-01
EXPONENTS  0.7290000D-01 0.2187000D+00 0.6561000D+00 0.1968300D+01 0.1000000D-03
EXPONENTS  0.1000000D-03 0.1000000D-03 0.3000000D-03 0.3000000D-03 0.3000000D-03
EXPONENTS  0.9000000D-03 0.9000000D-03 0.9000000D-03 0.2700000D-02 0.2700000D-02
EXPONENTS  0.2700000D-02 0.1000000D-03 0.1000000D-03 0.1000000D-03 0.1000000D-03
EXPONENTS  0.1000000D-03 0.1000000D-03 0.3000000D-03 0.3000000D-03 0.3000000D-03
EXPONENTS  0.3000000D-03 0.3000000D-03 0.3000000D-03
MO    1     MO 0.0        OCC NO =    1.0000000  ORB. ENERGY =    0.003465
  0.25085459D-03  0.30050530D-03 -0.20471167D-02 -0.88368326D-06 -0.27618405D-02
 -0.45491568D-02 -0.70187596D-02  0.12730563D-01  0.18860735D-02 -0.33765702D-04
 -0.49011750D-05  0.00000000D+00  0.00000000D+00  0.69969306D-05  0.00000000D+00
  0.00000000D+00 -0.49157783D-04 -0.00000000D+00  0.00000000D+00 -0.14445981D-03
  0.00000000D+00  0.00000000D+00 -0.30676850D-07 -0.39316223D-08 -0.39316223D-08
  0.00000000D+00  0.00000000D+00  0.00000000D+00 -0.75473045D-07 -0.91077838D-07
 -0.91077838D-07  0.00000000D+00  0.00000000D+00 -0.00000000D+00  0.25085459D-03
  0.30050530D-03 -0.20471167D-02 -0.88368326D-06 -0.27618405D-02 -0.45491568D-02
 -0.70187596D-02  0.12730563D-01  0.18860735D-02 -0.33765702D-04  0.49011750D-05
 -0.00000000D+00 -0.00000000D+00 -0.69969306D-05 -0.00000000D+00 -0.00000000D+00
  0.49157783D-04  0.00000000D+00  0.00000000D+00  0.14445981D-03 -0.00000000D+00
  0.00000000D+00 -0.30676850D-07 -0.39316223D-08 -0.39316223D-08 -0.00000000D+00
  0.00000000D+00 -0.00000000D+00 -0.75473045D-07 -0.91077838D-07 -0.91077838D-07
  0.00000000D+00  0.00000000D+00  0.00000000D+00
MO    2     MO 0.0        OCC NO =    0.0000000  ORB. ENERGY =    0.004738
  0.14385725D-04 -0.16378620D-02 -0.89673379D-04 -0.34632544D-02 -0.23493731D-02
 -0.84987886D-02 -0.95484438D-02  0.18589630D-01  0.32903776D-02 -0.22337948D-03
 -0.47411021D-06  0.00000000D+00 -0.00000000D+00 -0.36247549D-04 -0.00000000D+00
  0.00000000D+00  0.29247890D-04  0.00000000D+00 -0.00000000D+00 -0.26107375D-03
 -0.00000000D+00  0.00000000D+00 -0.43628492D-08 -0.35817650D-08 -0.35817650D-08
  0.00000000D+00 -0.00000000D+00  0.00000000D+00 -0.27302325D-06 -0.67221260D-07
 -0.67221260D-07 -0.00000000D+00  0.00000000D+00 -0.00000000D+00 -0.14385725D-04
  0.16378620D-02  0.89673379D-04  0.34632544D-02  0.23493731D-02  0.84987886D-02
  0.95484438D-02 -0.18589630D-01 -0.32903776D-02  0.22337948D-03 -0.47411021D-06
 -0.00000000D+00  0.00000000D+00 -0.36247549D-04  0.00000000D+00 -0.00000000D+00
  0.29247890D-04  0.00000000D+00  0.00000000D+00 -0.26107375D-03 -0.00000000D+00
 -0.00000000D+00  0.43628492D-08  0.35817650D-08  0.35817650D-08  0.00000000D+00
 -0.00000000D+00 -0.00000000D+00  0.27302325D-06  0.67221260D-07  0.67221260D-07
 -0.00000000D+00 -0.00000000D+00  0.00000000D+00
MO    3     MO 0.0        OCC NO =    0.0000000  ORB. ENERGY =    0.007218
 -0.36498874D-03 -0.19745927D-03  0.30317952D-02 -0.62429592D-02 -0.13740237D-02
 -0.89495436D-02 -0.80473828D-02  0.16625557D-01  0.33259104D-02 -0.32196443D-03
  0.10140904D-04 -0.00000000D+00  0.00000000D+00 -0.15281979D-04  0.00000000D+00
 -0.00000000D+00  0.11839974D-03 -0.00000000D+00  0.00000000D+00 -0.22465773D-03
  0.00000000D+00 -0.00000000D+00  0.59151560D-07  0.28882785D-08  0.28882785D-08
 -0.00000000D+00  0.00000000D+00 -0.00000000D+00  0.78855815D-08  0.64362048D-07
  0.64362048D-07 -0.00000000D+00 -0.00000000D+00  0.00000000D+00 -0.36498874D-03
 -0.19745927D-03  0.30317952D-02 -0.62429592D-02 -0.13740237D-02 -0.89495436D-02
 -0.80473828D-02  0.16625557D-01  0.33259104D-02 -0.32196443D-03 -0.10140904D-04
  0.00000000D+00 -0.00000000D+00  0.15281979D-04 -0.00000000D+00  0.00000000D+00
 -0.11839974D-03  0.00000000D+00  0.00000000D+00  0.22465773D-03 -0.00000000D+00
 -0.00000000D+00  0.59151560D-07  0.28882785D-08  0.28882785D-08 -0.00000000D+00
  0.00000000D+00  0.00000000D+00  0.78855815D-08  0.64362048D-07  0.64362048D-07
 -0.00000000D+00 -0.00000000D+00 -0.00000000D+00
MO    4     MO 0.0        OCC NO =    0.0000000  ORB. ENERGY =    0.013624
 -0.84324460D-05 -0.42662795D-02  0.31933285D-02  0.17429476D-02 -0.11256982D-01
 -0.38746293D-02 -0.11022116D-01  0.18099233D-01  0.19972962D-02  0.18809782D-03
  0.15431306D-05  0.00000000D+00 -0.00000000D+00 -0.79623359D-04 -0.00000000D+00
  0.00000000D+00  0.58846169D-04 -0.00000000D+00 -0.00000000D+00  0.34630788D-03
  0.00000000D+00  0.00000000D+00  0.15136594D-07  0.11815917D-07  0.11815917D-07
  0.00000000D+00 -0.00000000D+00  0.00000000D+00 -0.30570548D-06  0.14726970D-06
  0.14726970D-06 -0.00000000D+00  0.00000000D+00 -0.00000000D+00  0.84324460D-05
  0.42662795D-02 -0.31933285D-02 -0.17429476D-02  0.11256982D-01  0.38746293D-02
  0.11022116D-01 -0.18099233D-01 -0.19972962D-02 -0.18809782D-03  0.15431306D-05
 -0.00000000D+00  0.00000000D+00 -0.79623359D-04  0.00000000D+00 -0.00000000D+00
  0.58846169D-04  0.00000000D+00  0.00000000D+00  0.34630788D-03 -0.00000000D+00
 -0.00000000D+00 -0.15136594D-07 -0.11815917D-07 -0.11815917D-07  0.00000000D+00
 -0.00000000D+00 -0.00000000D+00  0.30570548D-06 -0.14726970D-06 -0.14726970D-06
 -0.00000000D+00  0.00000000D+00  0.00000000D+00
MO    5     MO 0.0        OCC NO =    0.0000000  ORB. ENERGY =    0.015632
  0.00000000D+00 -0.00000000D+00  0.00000000D+00 -0.00000000D+00 -0.00000000D+00
 -0.00000000D+00  0.00000000D+00 -0.00000000D+00  0.00000000D+00 -0.00000000D+00
 -0.00000000D+00  0.37827855D-06  0.81005804D-06 -0.00000000D+00 -0.37997649D-05
 -0.81369399D-05  0.00000000D+00  0.53893994D-04  0.11541035D-03  0.00000000D+00
  0.64344504D-04  0.13778942D-03 -0.00000000D+00 -0.00000000D+00 -0.00000000D+00
 -0.90241113D-08 -0.19324524D-07 -0.00000000D+00 -0.00000000D+00 -0.00000000D+00
 -0.00000000D+00  0.99286456D-07  0.21261522D-06  0.00000000D+00 -0.00000000D+00
  0.00000000D+00 -0.00000000D+00  0.00000000D+00 -0.00000000D+00  0.00000000D+00
 -0.00000000D+00  0.00000000D+00  0.00000000D+00 -0.00000000D+00  0.00000000D+00
  0.37827855D-06  0.81005804D-06 -0.00000000D+00 -0.37997649D-05 -0.81369399D-05
  0.00000000D+00  0.53893994D-04  0.11541035D-03 -0.00000000D+00  0.64344504D-04
  0.13778942D-03 -0.00000000D+00  0.00000000D+00  0.00000000D+00  0.90241113D-08
  0.19324524D-07  0.00000000D+00  0.00000000D+00  0.00000000D+00  0.00000000D+00
 -0.99286456D-07 -0.21261522D-06  0.00000000D+00
MO    6     MO 0.0        OCC NO =    0.0000000  ORB. ENERGY =    0.015632
  0.00000000D+00  0.00000000D+00 -0.00000000D+00 -0.00000000D+00  0.00000000D+00
 -0.00000000D+00  0.00000000D+00 -0.00000000D+00  0.00000000D+00 -0.00000000D+00
 -0.00000000D+00 -0.81005804D-06  0.37827855D-06  0.00000000D+00  0.81369399D-05
 -0.37997649D-05  0.00000000D+00 -0.11541035D-03  0.53893994D-04 -0.00000000D+00
 -0.13778942D-03  0.64344504D-04 -0.00000000D+00  0.00000000D+00  0.00000000D+00
  0.19324524D-07 -0.90241113D-08 -0.00000000D+00  0.00000000D+00 -0.00000000D+00
 -0.00000000D+00 -0.21261522D-06  0.99286456D-07  0.00000000D+00  0.00000000D+00
 -0.00000000D+00 -0.00000000D+00 -0.00000000D+00  0.00000000D+00  0.00000000D+00
  0.00000000D+00 -0.00000000D+00  0.00000000D+00 -0.00000000D+00  0.00000000D+00
 -0.81005804D-06  0.37827855D-06  0.00000000D+00  0.81369399D-05 -0.37997649D-05
 -0.00000000D+00 -0.11541035D-03  0.53893994D-04  0.00000000D+00 -0.13778942D-03
  0.64344504D-04 -0.00000000D+00 -0.00000000D+00 -0.00000000D+00 -0.19324524D-07
  0.90241113D-08  0.00000000D+00 -0.00000000D+00 -0.00000000D+00 -0.00000000D+00
  0.21261522D-06 -0.99286456D-07  0.00000000D+00
MO    7     MO 0.0        OCC NO =    0.0000000  ORB. ENERGY =    0.015952
 -0.36307556D-03 -0.68958758D-03  0.53155434D-04  0.97123386D-02 -0.16152639D-01
  0.26493949D-03 -0.11534279D-01  0.16598055D-01  0.81012750D-03  0.50733825D-03
 -0.42897094D-05  0.00000000D+00 -0.00000000D+00  0.21996650D-05 -0.00000000D+00
  0.00000000D+00 -0.11609661D-03 -0.00000000D+00 -0.00000000D+00  0.69031412D-03
 -0.00000000D+00  0.00000000D+00 -0.64616213D-08  0.15996139D-07  0.15996139D-07
  0.00000000D+00 -0.00000000D+00  0.00000000D+00  0.25999733D-06  0.34934314D-06
  0.34934314D-06 -0.00000000D+00 -0.00000000D+00 -0.00000000D+00 -0.36307556D-03
 -0.68958758D-03  0.53155434D-04  0.97123386D-02 -0.16152639D-01  0.26493949D-03
 -0.11534279D-01  0.16598055D-01  0.81012750D-03  0.50733825D-03  0.42897094D-05
 -0.00000000D+00  0.00000000D+00 -0.21996650D-05  0.00000000D+00 -0.00000000D+00
  0.11609661D-03 -0.00000000D+00  0.00000000D+00 -0.69031412D-03 -0.00000000D+00
  0.00000000D+00 -0.64616213D-08  0.15996139D-07  0.15996139D-07  0.00000000D+00
 -0.00000000D+00 -0.00000000D+00  0.25999733D-06  0.34934314D-06  0.34934314D-06
 -0.00000000D+00  0.00000000D+00  0.00000000D+00
MO    8     MO 0.0        OCC NO =    0.0000000  ORB. ENERGY =    0.018186
  0.00000000D+00 -0.00000000D+00  0.00000000D+00 -0.00000000D+00  0.00000000D+00
 -0.00000000D+00  0.00000000D+00 -0.00000000D+00 -0.00000000D+00  0.00000000D+00
 -0.00000000D+00 -0.14665496D-05  0.24510910D-06 -0.00000000D+00 -0.82104598D-06
  0.13722416D-06  0.00000000D+00 -0.19882107D-04  0.33229613D-05 -0.00000000D+00
 -0.57093520D-03  0.95422232D-04 -0.00000000D+00 -0.00000000D+00 -0.00000000D+00
 -0.54252680D-08  0.90674381D-09  0.00000000D+00 -0.00000000D+00 -0.00000000D+00
 -0.00000000D+00 -0.77744228D-07  0.12993649D-07 -0.00000000D+00 -0.00000000D+00
  0.00000000D+00 -0.00000000D+00  0.00000000D+00 -0.00000000D+00  0.00000000D+00
 -0.00000000D+00  0.00000000D+00 -0.00000000D+00  0.00000000D+00  0.00000000D+00
  0.14665496D-05 -0.24510910D-06 -0.00000000D+00  0.82104598D-06 -0.13722416D-06
  0.00000000D+00  0.19882107D-04 -0.33229613D-05 -0.00000000D+00  0.57093520D-03
 -0.95422232D-04 -0.00000000D+00  0.00000000D+00  0.00000000D+00 -0.54252680D-08
  0.90674381D-09 -0.00000000D+00  0.00000000D+00  0.00000000D+00  0.00000000D+00
 -0.77744228D-07  0.12993649D-07  0.00000000D+00
MO    9     MO 0.0        OCC NO =    0.0000000  ORB. ENERGY =    0.018186
 -0.00000000D+00  0.00000000D+00 -0.00000000D+00  0.00000000D+00 -0.00000000D+00
  0.00000000D+00 -0.00000000D+00  0.00000000D+00 -0.00000000D+00  0.00000000D+00
  0.00000000D+00  0.24510910D-06  0.14665496D-05  0.00000000D+00  0.13722416D-06
  0.82104598D-06 -0.00000000D+00  0.33229613D-05  0.19882107D-04  0.00000000D+00
  0.95422232D-04  0.57093520D-03  0.00000000D+00  0.00000000D+00  0.00000000D+00
  0.90674381D-09  0.54252680D-08  0.00000000D+00  0.00000000D+00  0.00000000D+00
  0.00000000D+00  0.12993649D-07  0.77744228D-07 -0.00000000D+00 -0.00000000D+00
 -0.00000000D+00  0.00000000D+00 -0.00000000D+00  0.00000000D+00 -0.00000000D+00
  0.00000000D+00 -0.00000000D+00  0.00000000D+00 -0.00000000D+00 -0.00000000D+00
 -0.24510910D-06 -0.14665496D-05  0.00000000D+00 -0.13722416D-06 -0.82104598D-06
 -0.00000000D+00 -0.33229613D-05 -0.19882107D-04  0.00000000D+00 -0.95422232D-04
 -0.57093520D-03  0.00000000D+00 -0.00000000D+00 -0.00000000D+00  0.90674381D-09
  0.54252680D-08 -0.00000000D+00 -0.00000000D+00 -0.00000000D+00 -0.00000000D+00
  0.12993649D-07  0.77744228D-07  0.00000000D+00
MO   10     MO 0.0        OCC NO =    0.0000000  ORB. ENERGY =    0.020139
 -0.51220175D-04  0.15481554D-01 -0.91592261D-02  0.14814451D-01 -0.12669745D-01
  0.30076135D-02 -0.63456352D-02  0.76423011D-02 -0.34293189D-03  0.46725999D-03
 -0.73337692D-06 -0.00000000D+00  0.00000000D+00  0.31562881D-03  0.00000000D+00
 -0.00000000D+00 -0.34753951D-03 -0.00000000D+00  0.00000000D+00  0.61282084D-03
 -0.00000000D+00 -0.00000000D+00 -0.55201650D-08 -0.70948999D-08 -0.70948999D-08
 -0.00000000D+00  0.00000000D+00 -0.00000000D+00  0.17988699D-05  0.58184031D-07
  0.58184031D-07  0.00000000D+00 -0.00000000D+00  0.00000000D+00  0.51220175D-04
 -0.15481554D-01  0.91592261D-02 -0.14814451D-01  0.12669745D-01 -0.30076135D-02
  0.63456352D-02 -0.76423011D-02  0.34293189D-03 -0.46725999D-03 -0.73337692D-06
  0.00000000D+00 -0.00000000D+00  0.31562881D-03 -0.00000000D+00  0.00000000D+00
 -0.34753951D-03 -0.00000000D+00 -0.00000000D+00  0.61282084D-03  0.00000000D+00
  0.00000000D+00  0.55201650D-08  0.70948999D-08  0.70948999D-08 -0.00000000D+00
  0.00000000D+00  0.00000000D+00 -0.17988699D-05 -0.58184031D-07 -0.58184031D-07
  0.00000000D+00 -0.00000000D+00 -0.00000000D+00
MO   11     MO 0.0        OCC NO =    0.0000000  ORB. ENERGY =    0.021691
  0.00000000D+00  0.00000000D+00  0.00000000D+00 -0.00000000D+00  0.00000000D+00
 -0.00000000D+00  0.00000000D+00 -0.00000000D+00 -0.00000000D+00 -0.00000000D+00
 -0.00000000D+00 -0.99136632D-06 -0.43473608D-08  0.00000000D+00  0.10468811D-04
  0.45907407D-07 -0.00000000D+00 -0.18635570D-03 -0.81719893D-06 -0.00000000D+00
  0.87468257D-03  0.38356139D-05 -0.00000000D+00  0.00000000D+00 -0.00000000D+00
  0.22359894D-07  0.98051168D-10 -0.00000000D+00  0.00000000D+00 -0.00000000D+00
 -0.00000000D+00 -0.24939919D-06 -0.10936533D-08 -0.00000000D+00  0.00000000D+00
 -0.00000000D+00 -0.00000000D+00  0.00000000D+00 -0.00000000D+00 -0.00000000D+00
  0.00000000D+00 -0.00000000D+00  0.00000000D+00  0.00000000D+00  0.00000000D+00
 -0.99136632D-06 -0.43473608D-08  0.00000000D+00  0.10468811D-04  0.45907407D-07
  0.00000000D+00 -0.18635570D-03 -0.81719893D-06 -0.00000000D+00  0.87468257D-03
  0.38356139D-05 -0.00000000D+00 -0.00000000D+00 -0.00000000D+00 -0.22359894D-07
 -0.98051168D-10  0.00000000D+00 -0.00000000D+00 -0.00000000D+00 -0.00000000D+00
  0.24939919D-06  0.10936533D-08  0.00000000D+00
MO   12     MO 0.0        OCC NO =    0.0000000  ORB. ENERGY =    0.021691
  0.00000000D+00 -0.00000000D+00 -0.00000000D+00  0.00000000D+00 -0.00000000D+00
 -0.00000000D+00 -0.00000000D+00  0.00000000D+00 -0.00000000D+00  0.00000000D+00
 -0.00000000D+00 -0.43473608D-08  0.99136632D-06 -0.00000000D+00  0.45907407D-07
 -0.10468811D-04 -0.00000000D+00 -0.81719893D-06  0.18635570D-03  0.00000000D+00
  0.38356139D-05 -0.87468257D-03 -0.00000000D+00 -0.00000000D+00  0.00000000D+00
  0.98051168D-10 -0.22359894D-07  0.00000000D+00 -0.00000000D+00  0.00000000D+00
  0.00000000D+00 -0.10936533D-08  0.24939919D-06 -0.00000000D+00  0.00000000D+00
  0.00000000D+00  0.00000000D+00 -0.00000000D+00  0.00000000D+00 -0.00000000D+00
  0.00000000D+00 -0.00000000D+00  0.00000000D+00 -0.00000000D+00  0.00000000D+00
 -0.43473608D-08  0.99136632D-06 -0.00000000D+00  0.45907407D-07 -0.10468811D-04
 -0.00000000D+00 -0.81719893D-06  0.18635570D-03  0.00000000D+00  0.38356139D-05
 -0.87468257D-03 -0.00000000D+00  0.00000000D+00 -0.00000000D+00 -0.98051168D-10
  0.22359894D-07 -0.00000000D+00  0.00000000D+00 -0.00000000D+00 -0.00000000D+00
  0.10936533D-08 -0.24939919D-06  0.00000000D+00
MO   13     MO 0.0        OCC NO =    0.0000000  ORB. ENERGY =    0.026088
 -0.46006888D-03 -0.14030860D-03  0.46622485D-03 -0.70216954D-02  0.11412804D-01
  0.87021350D-03  0.64315355D-02 -0.97556355D-02 -0.77817442D-03 -0.20581563D-03
  0.95450431D-05  0.00000000D+00 -0.00000000D+00 -0.13745780D-04  0.00000000D+00
  0.00000000D+00  0.64272976D-04 -0.00000000D+00 -0.00000000D+00  0.22142568D-03
  0.00000000D+00  0.00000000D+00  0.60775002D-07  0.67373841D-08  0.67373841D-08
 -0.00000000D+00 -0.00000000D+00 -0.00000000D+00  0.44474582D-07  0.12033203D-06
  0.12033203D-06  0.00000000D+00  0.00000000D+00  0.00000000D+00 -0.46006888D-03
 -0.14030860D-03  0.46622485D-03 -0.70216954D-02  0.11412804D-01  0.87021350D-03
  0.64315355D-02 -0.97556355D-02 -0.77817442D-03 -0.20581563D-03 -0.95450431D-05
 -0.00000000D+00  0.00000000D+00  0.13745780D-04  0.00000000D+00  0.00000000D+00
 -0.64272976D-04  0.00000000D+00 -0.00000000D+00 -0.22142568D-03 -0.00000000D+00
  0.00000000D+00  0.60775002D-07  0.67373841D-08  0.67373841D-08 -0.00000000D+00
 -0.00000000D+00  0.00000000D+00  0.44474582D-07  0.12033203D-06  0.12033203D-06
  0.00000000D+00  0.00000000D+00 -0.00000000D+00
MO   14     MO 0.0        OCC NO =    0.0000000  ORB. ENERGY =    0.027071
  0.00000000D+00  0.00000000D+00 -0.00000000D+00  0.00000000D+00 -0.00000000D+00
 -0.00000000D+00 -0.00000000D+00  0.00000000D+00  0.00000000D+00  0.00000000D+00
  0.00000000D+00 -0.22863535D-04  0.13850541D-04  0.00000000D+00  0.26313836D-04
 -0.15940705D-04 -0.00000000D+00 -0.27151749D-03  0.16448305D-03 -0.00000000D+00
  0.64260353D-03 -0.38928391D-03  0.00000000D+00  0.00000000D+00  0.00000000D+00
 -0.11737706D-06  0.71106055D-07  0.00000000D+00  0.00000000D+00 -0.00000000D+00
 -0.00000000D+00  0.26650161D-07 -0.16144438D-07 -0.00000000D+00 -0.00000000D+00
 -0.00000000D+00 -0.00000000D+00  0.00000000D+00 -0.00000000D+00  0.00000000D+00
 -0.00000000D+00  0.00000000D+00 -0.00000000D+00  0.00000000D+00 -0.00000000D+00
  0.22863535D-04 -0.13850541D-04  0.00000000D+00 -0.26313836D-04  0.15940705D-04
 -0.00000000D+00  0.27151749D-03 -0.16448305D-03  0.00000000D+00 -0.64260353D-03
  0.38928391D-03  0.00000000D+00 -0.00000000D+00 -0.00000000D+00 -0.11737706D-06
  0.71106055D-07 -0.00000000D+00 -0.00000000D+00 -0.00000000D+00 -0.00000000D+00
  0.26650161D-07 -0.16144438D-07  0.00000000D+00
MO   15     MO 0.0        OCC NO =    0.0000000  ORB. ENERGY =    0.027071
 -0.00000000D+00 -0.00000000D+00  0.00000000D+00 -0.00000000D+00  0.00000000D+00
 -0.00000000D+00  0.00000000D+00 -0.00000000D+00  0.00000000D+00 -0.00000000D+00
  0.00000000D+00 -0.13850541D-04 -0.22863535D-04 -0.00000000D+00  0.15940705D-04
  0.26313836D-04  0.00000000D+00 -0.16448305D-03 -0.27151749D-03 -0.00000000D+00
  0.38928391D-03  0.64260353D-03  0.00000000D+00 -0.00000000D+00 -0.00000000D+00
 -0.71106055D-07 -0.11737706D-06 -0.00000000D+00 -0.00000000D+00  0.00000000D+00
  0.00000000D+00  0.16144438D-07  0.26650161D-07  0.00000000D+00 -0.00000000D+00
  0.00000000D+00  0.00000000D+00  0.00000000D+00 -0.00000000D+00 -0.00000000D+00
 -0.00000000D+00  0.00000000D+00 -0.00000000D+00  0.00000000D+00 -0.00000000D+00
  0.13850541D-04  0.22863535D-04 -0.00000000D+00 -0.15940705D-04 -0.26313836D-04
  0.00000000D+00  0.16448305D-03  0.27151749D-03  0.00000000D+00 -0.38928391D-03
 -0.64260353D-03  0.00000000D+00  0.00000000D+00  0.00000000D+00 -0.71106055D-07
 -0.11737706D-06  0.00000000D+00  0.00000000D+00  0.00000000D+00  0.00000000D+00
  0.16144438D-07  0.26650161D-07 -0.00000000D+00
MO   16     MO 0.0        OCC NO =    0.0000000  ORB. ENERGY =    0.027753
  0.16309267D-04 -0.36025268D-02  0.31861641D-02 -0.12088180D-01  0.14774546D-01
  0.14611012D-03  0.74925254D-02 -0.10915381D-01 -0.67079128D-03 -0.29584961D-03
 -0.35920783D-07  0.00000000D+00  0.00000000D+00 -0.78450859D-04  0.00000000D+00
 -0.00000000D+00  0.15731254D-03  0.00000000D+00  0.00000000D+00  0.22941075D-03
 -0.00000000D+00 -0.00000000D+00 -0.26080519D-08  0.14475611D-08  0.14475611D-08
  0.00000000D+00  0.00000000D+00 -0.00000000D+00 -0.47386170D-06 -0.78031191D-07
 -0.78031191D-07  0.00000000D+00 -0.00000000D+00  0.00000000D+00 -0.16309267D-04
  0.36025268D-02 -0.31861641D-02  0.12088180D-01 -0.14774546D-01 -0.14611012D-03
 -0.74925254D-02  0.10915381D-01  0.67079128D-03  0.29584961D-03 -0.35920783D-07
 -0.00000000D+00 -0.00000000D+00 -0.78450859D-04 -0.00000000D+00  0.00000000D+00
  0.15731254D-03 -0.00000000D+00 -0.00000000D+00  0.22941075D-03  0.00000000D+00
  0.00000000D+00  0.26080519D-08 -0.14475611D-08 -0.14475611D-08  0.00000000D+00
  0.00000000D+00  0.00000000D+00  0.47386170D-06  0.78031191D-07  0.78031191D-07
  0.00000000D+00 -0.00000000D+00 -0.00000000D+00
MO   17     MO 0.0        OCC NO =    0.0000000  ORB. ENERGY =    0.031368
  0.39279621D-02  0.36222974D-02 -0.15547460D-01  0.13790243D-01 -0.85388938D-02
 -0.12077113D-02 -0.29460357D-02  0.49618535D-02  0.65340673D-03  0.22774972D-04
 -0.45899208D-04 -0.00000000D+00  0.00000000D+00  0.85625046D-04  0.00000000D+00
 -0.00000000D+00 -0.19084556D-03 -0.00000000D+00  0.00000000D+00  0.47414821D-03
  0.00000000D+00  0.00000000D+00 -0.36152242D-06 -0.90272036D-07 -0.90272036D-07
 -0.00000000D+00  0.00000000D+00  0.00000000D+00 -0.95756630D-06 -0.18441489D-05
 -0.18441489D-05  0.00000000D+00 -0.00000000D+00 -0.00000000D+00  0.39279621D-02
  0.36222974D-02 -0.15547460D-01  0.13790243D-01 -0.85388938D-02 -0.12077113D-02
 -0.29460357D-02  0.49618535D-02  0.65340673D-03  0.22774972D-04  0.45899208D-04
  0.00000000D+00 -0.00000000D+00 -0.85625046D-04 -0.00000000D+00  0.00000000D+00
  0.19084556D-03  0.00000000D+00 -0.00000000D+00 -0.47414821D-03 -0.00000000D+00
  0.00000000D+00 -0.36152242D-06 -0.90272036D-07 -0.90272036D-07 -0.00000000D+00
  0.00000000D+00 -0.00000000D+00 -0.95756630D-06 -0.18441489D-05 -0.18441489D-05
  0.00000000D+00 -0.00000000D+00  0.00000000D+00
MO   18     MO 0.0        OCC NO =    0.0000000  ORB. ENERGY =    0.033373
 -0.54512894D-03 -0.16568734D-02  0.88650652D-02 -0.15862503D-01  0.14061596D-01
 -0.32302113D-03  0.57432646D-02 -0.81313491D-02 -0.40513909D-03 -0.25341449D-03
 -0.61974084D-05 -0.00000000D+00 -0.00000000D+00  0.26056331D-05  0.00000000D+00
  0.00000000D+00 -0.16488302D-03 -0.00000000D+00 -0.00000000D+00  0.51056312D-03
 -0.00000000D+00  0.00000000D+00 -0.78399927D-08  0.24332257D-07  0.24332257D-07
 -0.00000000D+00 -0.00000000D+00 -0.00000000D+00  0.43573181D-06  0.56538961D-06
  0.56538961D-06  0.00000000D+00  0.00000000D+00 -0.00000000D+00 -0.54512894D-03
 -0.16568734D-02  0.88650652D-02 -0.15862503D-01  0.14061596D-01 -0.32302113D-03
  0.57432646D-02 -0.81313491D-02 -0.40513909D-03 -0.25341449D-03  0.61974084D-05
  0.00000000D+00  0.00000000D+00 -0.26056331D-05 -0.00000000D+00 -0.00000000D+00
  0.16488302D-03 -0.00000000D+00  0.00000000D+00 -0.51056312D-03  0.00000000D+00
  0.00000000D+00 -0.78399927D-08  0.24332257D-07  0.24332257D-07 -0.00000000D+00
 -0.00000000D+00  0.00000000D+00  0.43573181D-06  0.56538961D-06  0.56538961D-06
  0.00000000D+00  0.00000000D+00 -0.00000000D+00
MO   19     MO 0.0        OCC NO =    0.0000000  ORB. ENERGY =    0.034035
  0.46932190D-04 -0.12630416D-01 -0.18135233D-02  0.83368261D-02 -0.88777987D-02
  0.11203136D-02 -0.37992378D-02  0.48840960D-02 -0.62607256D-05  0.23284240D-03
  0.17002259D-06  0.00000000D+00 -0.00000000D+00 -0.27929973D-03 -0.00000000D+00
  0.00000000D+00  0.35218926D-03  0.00000000D+00 -0.00000000D+00 -0.58204428D-03
 -0.00000000D+00  0.00000000D+00  0.33918798D-08  0.55691509D-08  0.55691509D-08
  0.00000000D+00 -0.00000000D+00 -0.00000000D+00 -0.17563955D-05 -0.20642301D-06
 -0.20642301D-06 -0.00000000D+00  0.00000000D+00  0.00000000D+00 -0.46932190D-04
  0.12630416D-01  0.18135233D-02 -0.83368261D-02  0.88777987D-02 -0.11203136D-02
  0.37992378D-02 -0.48840960D-02  0.62607256D-05 -0.23284240D-03  0.17002259D-06
 -0.00000000D+00  0.00000000D+00 -0.27929973D-03  0.00000000D+00 -0.00000000D+00
  0.35218926D-03 -0.00000000D+00  0.00000000D+00 -0.58204428D-03  0.00000000D+00
 -0.00000000D+00 -0.33918798D-08 -0.55691509D-08 -0.55691509D-08  0.00000000D+00
 -0.00000000D+00  0.00000000D+00  0.17563955D-05  0.20642301D-06  0.20642301D-06
 -0.00000000D+00  0.00000000D+00 -0.00000000D+00
MO   20     MO 0.0        OCC NO =    0.0000000  ORB. ENERGY =    0.039631
 -0.84789678D-03 -0.37783575D-02  0.15345732D-01 -0.11831493D-01  0.60549876D-02
  0.22431156D-02  0.16345454D-02 -0.35059166D-02 -0.76308633D-03  0.78072082D-04
  0.50935534D-04 -0.00000000D+00 -0.00000000D+00 -0.84807967D-04  0.00000000D+00
 -0.00000000D+00 -0.66550375D-04 -0.00000000D+00 -0.00000000D+00  0.69896963D-04
  0.00000000D+00  0.00000000D+00  0.63064535D-06  0.55306896D-06  0.55306896D-06
 -0.00000000D+00 -0.00000000D+00  0.00000000D+00  0.32147542D-05  0.35696048D-05
  0.35696048D-05  0.00000000D+00 -0.00000000D+00 -0.00000000D+00  0.84789678D-03
  0.37783575D-02 -0.15345732D-01  0.11831493D-01 -0.60549876D-02 -0.22431156D-02
 -0.16345454D-02  0.35059166D-02  0.76308633D-03 -0.78072082D-04  0.50935534D-04
  0.00000000D+00  0.00000000D+00 -0.84807967D-04 -0.00000000D+00  0.00000000D+00
 -0.66550375D-04  0.00000000D+00 -0.00000000D+00  0.69896963D-04 -0.00000000D+00
  0.00000000D+00 -0.63064535D-06 -0.55306896D-06 -0.55306896D-06 -0.00000000D+00
 -0.00000000D+00 -0.00000000D+00 -0.32147542D-05 -0.35696048D-05 -0.35696048D-05
  0.00000000D+00 -0.00000000D+00 -0.00000000D+00
MO   21     MO 0.0        OCC NO =    0.0000000  ORB. ENERGY =    0.042593
 -0.71320537D-02  0.32267564D-02  0.18922781D-02  0.36930700D-03 -0.53957121D-04
 -0.11215716D-02  0.11095669D-03  0.40435246D-03  0.29233172D-03 -0.74222958D-04
  0.85922730D-04  0.00000000D+00 -0.00000000D+00 -0.34070995D-04 -0.00000000D+00
  0.00000000D+00  0.36913127D-04  0.00000000D+00 -0.00000000D+00 -0.20334991D-04
 -0.00000000D+00  0.00000000D+00  0.76160157D-06  0.20006140D-06  0.20006140D-06
  0.00000000D+00 -0.00000000D+00 -0.00000000D+00  0.98821613D-06  0.15038474D-05
  0.15038474D-05 -0.00000000D+00  0.00000000D+00  0.00000000D+00 -0.71320537D-02
  0.32267564D-02  0.18922781D-02  0.36930700D-03 -0.53957121D-04 -0.11215716D-02
  0.11095669D-03  0.40435246D-03  0.29233172D-03 -0.74222958D-04 -0.85922730D-04
 -0.00000000D+00  0.00000000D+00  0.34070995D-04  0.00000000D+00 -0.00000000D+00
 -0.36913127D-04 -0.00000000D+00  0.00000000D+00  0.20334991D-04  0.00000000D+00
 -0.00000000D+00  0.76160157D-06  0.20006140D-06  0.20006140D-06  0.00000000D+00
 -0.00000000D+00  0.00000000D+00  0.98821613D-06  0.15038474D-05  0.15038474D-05
 -0.00000000D+00  0.00000000D+00  0.00000000D+00
MO   22     MO 0.0        OCC NO =    0.0000000  ORB. ENERGY =    0.042931
 -0.00000000D+00  0.00000000D+00 -0.00000000D+00  0.00000000D+00 -0.00000000D+00
 -0.00000000D+00 -0.00000000D+00  0.00000000D+00  0.00000000D+00 -0.00000000D+00
  0.00000000D+00  0.00000000D+00  0.00000000D+00  0.00000000D+00 -0.00000000D+00
 -0.00000000D+00  0.00000000D+00 -0.00000000D+00  0.00000000D+00 -0.00000000D+00
  0.00000000D+00 -0.00000000D+00  0.00000000D+00 -0.50956894D-07  0.50956894D-07
  0.00000000D+00  0.00000000D+00 -0.37102147D-07  0.00000000D+00  0.64808792D-06
 -0.64808792D-06 -0.00000000D+00 -0.00000000D+00  0.47187832D-06 -0.00000000D+00
 -0.00000000D+00  0.00000000D+00 -0.00000000D+00  0.00000000D+00  0.00000000D+00
  0.00000000D+00 -0.00000000D+00 -0.00000000D+00  0.00000000D+00  0.00000000D+00
 -0.00000000D+00 -0.00000000D+00  0.00000000D+00  0.00000000D+00 -0.00000000D+00
  0.00000000D+00 -0.00000000D+00  0.00000000D+00 -0.00000000D+00  0.00000000D+00
 -0.00000000D+00 -0.00000000D+00 -0.50956894D-07  0.50956894D-07  0.00000000D+00
 -0.00000000D+00 -0.37102147D-07 -0.00000000D+00  0.64808792D-06 -0.64808792D-06
 -0.00000000D+00  0.00000000D+00  0.47187832D-06
MO   23     MO 0.0        OCC NO =    0.0000000  ORB. ENERGY =    0.042931
  0.00000000D+00 -0.00000000D+00  0.00000000D+00 -0.00000000D+00  0.00000000D+00
  0.00000000D+00 -0.00000000D+00 -0.00000000D+00 -0.00000000D+00  0.00000000D+00
 -0.00000000D+00  0.00000000D+00  0.00000000D+00 -0.00000000D+00 -0.00000000D+00
 -0.00000000D+00 -0.00000000D+00  0.00000000D+00 -0.00000000D+00  0.00000000D+00
 -0.00000000D+00  0.00000000D+00 -0.00000000D+00  0.18551074D-07 -0.18551074D-07
  0.00000000D+00  0.00000000D+00 -0.10191379D-06 -0.00000000D+00 -0.23593915D-06
  0.23593915D-06 -0.00000000D+00  0.00000000D+00  0.12961759D-05  0.00000000D+00
  0.00000000D+00 -0.00000000D+00  0.00000000D+00 -0.00000000D+00 -0.00000000D+00
 -0.00000000D+00  0.00000000D+00  0.00000000D+00  0.00000000D+00  0.00000000D+00
 -0.00000000D+00 -0.00000000D+00 -0.00000000D+00  0.00000000D+00  0.00000000D+00
 -0.00000000D+00 -0.00000000D+00 -0.00000000D+00  0.00000000D+00  0.00000000D+00
  0.00000000D+00 -0.00000000D+00  0.18551074D-07 -0.18551074D-07  0.00000000D+00
  0.00000000D+00 -0.10191379D-06  0.00000000D+00 -0.23593915D-06  0.23593915D-06
 -0.00000000D+00 -0.00000000D+00  0.12961759D-05
MO   24     MO 0.0        OCC NO =    0.0000000  ORB. ENERGY =    0.043143
 -0.28825919D-03  0.44750296D-01 -0.14331044D-01  0.12782817D-01 -0.45176938D-02
 -0.71915970D-02 -0.43010316D-03  0.42099071D-02  0.19491639D-02 -0.42225484D-03
  0.60264755D-05 -0.00000000D+00  0.00000000D+00  0.71760919D-03  0.00000000D+00
 -0.00000000D+00  0.47915927D-04 -0.00000000D+00  0.00000000D+00 -0.83966677D-04
  0.00000000D+00 -0.00000000D+00  0.14633266D-06  0.19717207D-06  0.19717207D-06
 -0.00000000D+00  0.00000000D+00  0.00000000D+00  0.34832483D-05 -0.10239512D-05
 -0.10239512D-05  0.00000000D+00 -0.00000000D+00 -0.00000000D+00  0.28825919D-03
 -0.44750296D-01  0.14331044D-01 -0.12782817D-01  0.45176938D-02  0.71915970D-02
  0.43010316D-03 -0.42099071D-02 -0.19491639D-02  0.42225484D-03  0.60264755D-05
  0.00000000D+00 -0.00000000D+00  0.71760919D-03 -0.00000000D+00  0.00000000D+00