[Molden Format]
[Atoms] AU
E+       1       4     0.00000000     0.00000000     0.00000000
E+       2       4    49.20000000     0.00000000     0.00000000
[GTO]
  1 0
s  1 1.00
   1.0000000000E-04   1.0000000000E+00
s  1 1.00
   3.0000000000E-04   1.0000000000E+00
s  1 1.00
   9.0000000000E-04   1.0000000000E+00
s  1 1.00
   2.7000000000E-03   1.0000000000E+00
s  1 1.00
   8.1000000000E-03   1.0000000000E+00
s  1 1.00
   2.4300000000E-02   1.0000000000E+00
s  1 1.00
   7.2900000000E-02   1.0000000000E+00
s  1 1.00
   2.1870000000E-01   1.0000000000E+00
s  1 1.00
   6.5610000000E-01   1.0000000000E+00
s  1 1.00
   1.9683000000E+00   1.0000000000E+00
p  1 1.00
   1.0000000000E-04   1.0000000000E+00
p  1 1.00
   3.0000000000E-04   1.0000000000E+00
p  1 1.00
   9.0000000000E-04   1.0000000000E+00
p  1 1.00
   2.7000000000E-03   1.0000000000E+00
d  1 1.00
   1.0000000000E-04   1.0000000000E+00
d  1 1.00
   3.0000000000E-04   1.0000000000E+00
 
  2 0
s  1 1.00
   1.0000000000E-04   1.0000000000E+00
s  1 1.00
   3.0000000000E-04   1.0000000000E+00
s  1 1.00
   9.0000000000E-04   1.0000000000E+00
s  1 1.00
   2.7000000000E-03   1.0000000000E+00
s  1 1.00
   8.1000000000E-03   1.0000000000E+00
s  1 1.00
   2.4300000000E-02   1.0000000000E+00
s  1 1.00
   7.2900000000E-02   1.0000000000E+00
s  1 1.00
   2.1870000000E-01   1.0000000000E+00
s  1 1.00
   6.5610000000E-01   1.0000000000E+00
s  1 1.00
   1.9683000000E+00   1.0000000000E+00
p  1 1.00
   1.0000000000E-04   1.0000000000E+00
p  1 1.00
   3.0000000000E-04   1.0000000000E+00
p  1 1.00
   9.0000000000E-04   1.0000000000E+00
p  1 1.00
   2.7000000000E-03   1.0000000000E+00
d  1 1.00
   1.0000000000E-04   1.0000000000E+00
d  1 1.00
   3.0000000000E-04   1.0000000000E+00
 
 
[MO]
Ene=    -1.19881E-04
Spin= Alpha
Occup=   1.0000000000
   1       0.05313715
   2       0.07654644
   3      -0.14338349
   4      -0.22460668
   5      -0.22133906
   6      -0.17798700
   7      -0.10588500
   8       0.08640116
   9       0.00604424
  10      -0.00010322
  11      -0.01840125
  12      -0.00000000
  13      -0.00000000
  14      -0.00536691
  15      -0.00000000
  16      -0.00000000
  17      -0.01109565
  18      -0.00000000
  19      -0.00000000
  20      -0.18040814
  21       0.00000000
  22       0.00000000
  23      -0.01241931
  24      -0.00662459
  25      -0.00662459
  26      -0.00000000
  27      -0.00000000
  28       0.00000000
  29      -0.03659695
  30      -0.02432617
  31      -0.02432617
  32      -0.00000000
  33      -0.00000000
  34      -0.00000000
  35       0.05313715
  36       0.07654644
  37      -0.14338349
  38      -0.22460668
  39      -0.22133906
  40      -0.17798700
  41      -0.10588500
  42       0.08640116
  43       0.00604424
  44      -0.00010322
  45       0.01840125
  46       0.00000000
  47       0.00000000
  48       0.00536691
  49       0.00000000
  50       0.00000000
  51       0.01109565
  52       0.00000000
  53      -0.00000000
  54       0.18040814
  55       0.00000000
  56       0.00000000
  57      -0.01241931
  58      -0.00662459
  59      -0.00662459
  60      -0.00000000
  61      -0.00000000
  62      -0.00000000
  63      -0.03659695
  64      -0.02432617
  65      -0.02432617
  66      -0.00000000
  67      -0.00000000
  68       0.00000000
Ene=     2.90746E-04
Spin= Alpha
Occup=   0.0000000000
   1      -0.02131666
   2       1.41319157
   3      -0.00799034
   4       0.31830227
   5       0.22547508
   6       0.20526815
   7       0.11340184
   8      -0.09410483
   9      -0.00687312
  10       0.00015359
  11       0.02015286
  12       0.00000000
  13       0.00000000
  14       0.72471178
  15      -0.00000000
  16      -0.00000000
  17      -0.09898469
  18       0.00000000
  19       0.00000000
  20       0.20378098
  21      -0.00000000
  22      -0.00000000
  23       0.01834439
  24       0.01651632
  25       0.01651632
  26       0.00000000
  27       0.00000000
  28       0.00000000
  29       0.22539736
  30       0.04339921
  31       0.04339921
  32       0.00000000
  33      -0.00000000
  34      -0.00000000
  35       0.02131666
  36      -1.41319157
  37       0.00799034
  38      -0.31830227
  39      -0.22547508
  40      -0.20526815
  41      -0.11340184
  42       0.09410483
  43       0.00687312
  44      -0.00015359
  45       0.02015286
  46      -0.00000000
  47      -0.00000000
  48       0.72471178
  49       0.00000000
  50       0.00000000
  51      -0.09898469
  52      -0.00000000
  53       0.00000000
  54       0.20378098
  55       0.00000000
  56       0.00000000
  57      -0.01834439
  58      -0.01651632
  59      -0.01651632
  60       0.00000000
  61       0.00000000
  62      -0.00000000
  63      -0.22539736
  64      -0.04339921
  65      -0.04339921
  66       0.00000000
  67      -0.00000000
  68       0.00000000
Ene=     5.22246E-03
Spin= Alpha
Occup=   0.0000000000
   1       0.61411751
   2       0.16190287
   3      -0.93303824
   4       0.56153062
   5       0.10605965
   6       0.14810631
   7       0.05778195
   8      -0.05235105
   9      -0.00462102
  10       0.00019587
  11      -0.84093583
  12       0.00000000
  13       0.00000000
  14       0.28741060
  15       0.00000000
  16      -0.00000000
  17      -0.47961610
  18       0.00000000
  19       0.00000000
  20       0.07490317
  21      -0.00000000
  22      -0.00000000
  23      -0.38930256
  24      -0.02958532
  25      -0.02958532
  26       0.00000000
  27       0.00000000
  28       0.00000000
  29      -0.01731269
  30      -0.09667924
  31      -0.09667924
  32       0.00000000
  33      -0.00000000
  34      -0.00000000
  35       0.61411751
  36       0.16190287
  37      -0.93303824
  38       0.56153062
  39       0.10605965
  40       0.14810631
  41       0.05778195
  42      -0.05235105
  43      -0.00462102
  44       0.00019587
  45       0.84093583
  46      -0.00000000
  47      -0.00000000
  48      -0.28741060
  49      -0.00000000
  50       0.00000000
  51       0.47961610
  52      -0.00000000
  53      -0.00000000
  54      -0.07490317
  55       0.00000000
  56       0.00000000
  57      -0.38930256
  58      -0.02958532
  59      -0.02958532
  60       0.00000000
  61       0.00000000
  62      -0.00000000
  63      -0.01731269
  64      -0.09667924
  65      -0.09667924
  66       0.00000000
  67      -0.00000000
  68       0.00000000
Ene=     1.13289E-02
Spin= Alpha
Occup=   0.0000000000
   1      -0.02619827
   2       4.92827841
   3      -1.02309857
   4      -0.32171281
   5       0.59568325
   6       0.06884465
   7       0.09608282
   8      -0.06811520
   9      -0.00311439
  10      -0.00016543
  11      -0.09568272
  12       0.00000000
  13       0.00000000
  14       2.31494030
  15      -0.00000000
  16      -0.00000000
  17      -0.32269200
  18       0.00000000
  19       0.00000000
  20      -0.45782699
  21       0.00000000
  22      -0.00000000
  23      -0.08452584
  24      -0.06551283
  25      -0.06551283
  26       0.00000000
  27       0.00000000
  28      -0.00000000
  29       0.46061234
  30      -0.12238337
  31      -0.12238337
  32       0.00000000
  33      -0.00000000
  34       0.00000000
  35       0.02619827
  36      -4.92827841
  37       1.02309857
  38       0.32171281
  39      -0.59568325
  40      -0.06884465
  41      -0.09608282
  42       0.06811520
  43       0.00311439
  44       0.00016543
  45      -0.09568272
  46      -0.00000000
  47      -0.00000000
  48       2.31494030
  49      -0.00000000
  50       0.00000000
  51      -0.32269200
  52       0.00000000
  53      -0.00000000
  54      -0.45782699
  55       0.00000000
  56       0.00000000
  57       0.08452584
  58       0.06551283
  59       0.06551283
  60       0.00000000
  61       0.00000000
  62       0.00000000
  63      -0.46061234
  64       0.12238337
  65       0.12238337
  66       0.00000000
  67      -0.00000000
  68      -0.00000000
Ene=     1.15750E-02
Spin= Alpha
Occup=   0.0000000000
   1       0.00000000
   2       0.00000000
   3       0.00000000
   4      -0.00000000
   5       0.00000000
   6      -0.00000000
   7       0.00000000
   8      -0.00000000
   9       0.00000000
  10      -0.00000000
  11      -0.00000000
  12       0.04153143
  13      -0.01938776
  14       0.00000000
  15      -0.11168183
  16       0.05213547
  17      -0.00000000
  18       0.37598615
  19      -0.17551840
  20      -0.00000000
  21       0.30115909
  22      -0.14058753
  23      -0.00000000
  24       0.00000000
  25       0.00000000
  26      -0.04019890
  27       0.01876571
  28      -0.00000000
  29       0.00000000
  30       0.00000000
  31       0.00000000
  32       0.07219651
  33      -0.03370288
  34       0.00000000
  35       0.00000000
  36      -0.00000000
  37      -0.00000000
  38      -0.00000000
  39       0.00000000
  40      -0.00000000
  41       0.00000000
  42      -0.00000000
  43       0.00000000
  44      -0.00000000
  45       0.00000000
  46       0.04153143
  47      -0.01938776
  48       0.00000000
  49      -0.11168183
  50       0.05213547
  51      -0.00000000
  52       0.37598615
  53      -0.17551840
  54       0.00000000
  55       0.30115909
  56      -0.14058753
  57      -0.00000000
  58      -0.00000000
  59      -0.00000000
  60       0.04019890
  61      -0.01876571
  62       0.00000000
  63      -0.00000000
  64      -0.00000000
  65      -0.00000000
  66      -0.07219651
  67       0.03370288
  68      -0.00000000
Ene=     1.15750E-02
Spin= Alpha
Occup=   0.0000000000
   1      -0.00000000
   2       0.00000000
   3      -0.00000000
   4      -0.00000000
   5       0.00000000
   6       0.00000000
   7       0.00000000
   8      -0.00000000
   9      -0.00000000
  10       0.00000000
  11       0.00000000
  12      -0.01938776
  13      -0.04153143
  14       0.00000000
  15       0.05213547
  16       0.11168183
  17      -0.00000000
  18      -0.17551840
  19      -0.37598615
  20      -0.00000000
  21      -0.14058753
  22      -0.30115909
  23       0.00000000
  24       0.00000000
  25       0.00000000
  26       0.01876571
  27       0.04019890
  28       0.00000000
  29       0.00000000
  30      -0.00000000
  31      -0.00000000
  32      -0.03370288
  33      -0.07219651
  34      -0.00000000
  35       0.00000000
  36      -0.00000000
  37       0.00000000
  38       0.00000000
  39      -0.00000000
  40      -0.00000000
  41      -0.00000000
  42       0.00000000
  43      -0.00000000
  44       0.00000000
  45      -0.00000000
  46      -0.01938776
  47      -0.04153143
  48       0.00000000
  49       0.05213547
  50       0.11168183
  51      -0.00000000
  52      -0.17551840
  53      -0.37598615
  54      -0.00000000
  55      -0.14058753
  56      -0.30115909
  57       0.00000000
  58      -0.00000000
  59      -0.00000000
  60      -0.01876571
  61      -0.04019890
  62      -0.00000000
  63      -0.00000000
  64      -0.00000000
  65      -0.00000000
  66       0.03370288
  67       0.07219651
  68       0.00000000
Ene=     1.25055E-02
Spin= Alpha
Occup=   0.0000000000
   1      -0.00850663
   2       0.30852385
   3       0.40428172
   4      -1.38777517
   5       0.82619475
   6      -0.04036942
   7       0.10096513
   8      -0.05995637
   9      -0.00046689
  10      -0.00047065
  11       0.82991021
  12       0.00000000
  13      -0.00000000
  14      -0.21188803
  15      -0.00000000
  16      -0.00000000
  17       0.65061482
  18       0.00000000
  19       0.00000000
  20      -0.82156409
  21      -0.00000000
  22       0.00000000
  23       0.29686910
  24      -0.05766497
  25      -0.05766497
  26       0.00000000
  27      -0.00000000
  28      -0.00000000
  29      -0.20468341
  30      -0.18815165
  31      -0.18815165
  32      -0.00000000
  33      -0.00000000
  34       0.00000000
  35      -0.00850663
  36       0.30852385
  37       0.40428172
  38      -1.38777517
  39       0.82619475
  40      -0.04036942
  41       0.10096513
  42      -0.05995637
  43      -0.00046689
  44      -0.00047065
  45      -0.82991021
  46      -0.00000000
  47       0.00000000
  48       0.21188803
  49       0.00000000
  50       0.00000000
  51      -0.65061482
  52      -0.00000000
  53       0.00000000
  54       0.82156409
  55      -0.00000000
  56      -0.00000000
  57       0.29686910
  58      -0.05766497
  59      -0.05766497
  60       0.00000000
  61      -0.00000000
  62       0.00000000
  63      -0.20468341
  64      -0.18815165
  65      -0.18815165
  66      -0.00000000
  67      -0.00000000
  68       0.00000000
Ene=     1.37920E-02
Spin= Alpha
Occup=   0.0000000000
   1      -0.00000000
   2      -0.00000000
   3       0.00000000
   4      -0.00000000
   5       0.00000000
   6      -0.00000000
   7       0.00000000
   8      -0.00000000
   9      -0.00000000
  10       0.00000000
  11       0.00000000
  12      -0.07561650
  13      -0.04171263
  14      -0.00000000
  15       0.07493704
  16       0.04133782
  17       0.00000000
  18      -0.00387796
  19      -0.00213922
  20      -0.00000000
  21       0.63223685
  22       0.34876332
  23       0.00000000
  24      -0.00000000
  25      -0.00000000
  26      -0.02296872
  27      -0.01267033
  28       0.00000000
  29      -0.00000000
  30      -0.00000000
  31      -0.00000000
  32       0.04009041
  33       0.02211523
  34      -0.00000000
  35       0.00000000
  36       0.00000000
  37      -0.00000000
  38      -0.00000000
  39      -0.00000000
  40      -0.00000000
  41      -0.00000000
  42       0.00000000
  43      -0.00000000
  44       0.00000000
  45      -0.00000000
  46       0.07561650
  47       0.04171263
  48      -0.00000000
  49      -0.07493704
  50      -0.04133782
  51      -0.00000000
  52       0.00387796
  53       0.00213922
  54       0.00000000
  55      -0.63223685
  56      -0.34876332
  57       0.00000000
  58       0.00000000
  59       0.00000000
  60      -0.02296872
  61      -0.01267033
  62      -0.00000000
  63       0.00000000
  64       0.00000000
  65      -0.00000000
  66       0.04009041
  67       0.02211523
  68       0.00000000
Ene=     1.37920E-02
Spin= Alpha
Occup=   0.0000000000
   1       0.00000000
   2      -0.00000000
   3       0.00000000
   4      -0.00000000
   5       0.00000000
   6      -0.00000000
   7       0.00000000
   8       0.00000000
   9      -0.00000000
  10       0.00000000
  11      -0.00000000
  12       0.04171263
  13      -0.07561650
  14      -0.00000000
  15      -0.04133782
  16       0.07493704
  17       0.00000000
  18       0.00213922
  19      -0.00387796
  20      -0.00000000
  21      -0.34876332
  22       0.63223685
  23      -0.00000000
  24      -0.00000000
  25      -0.00000000
  26       0.01267033
  27      -0.02296872
  28       0.00000000
  29      -0.00000000
  30      -0.00000000
  31      -0.00000000
  32      -0.02211523
  33       0.04009041
  34      -0.00000000
  35       0.00000000
  36       0.00000000
  37      -0.00000000
  38       0.00000000
  39      -0.00000000
  40       0.00000000
  41      -0.00000000
  42       0.00000000
  43      -0.00000000
  44       0.00000000
  45       0.00000000
  46      -0.04171263
  47       0.07561650
  48      -0.00000000
  49       0.04133782
  50      -0.07493704
  51       0.00000000
  52      -0.00213922
  53       0.00387796
  54      -0.00000000
  55       0.34876332
  56      -0.63223685
  57      -0.00000000
  58       0.00000000
  59       0.00000000
  60       0.01267033
  61      -0.02296872
  62       0.00000000
  63       0.00000000
  64       0.00000000
  65       0.00000000
  66      -0.02211523
  67       0.04009041
  68      -0.00000000
Ene=     1.78464E-02
Spin= Alpha
Occup=   0.0000000000
   1      -0.18822626
   2      17.78279723
   3      -2.73912357
   4       1.60639119
   5      -0.54418293
   6       0.05150397
   7      -0.04811442
   8       0.02544215
   9      -0.00047614
  10       0.00029652
  11      -0.02596048
  12      -0.00000000
  13       0.00000000
  14       8.77051529
  15      -0.00000000
  16      -0.00000000
  17      -1.64428836
  18       0.00000000
  19       0.00000000
  20       0.70721823
  21      -0.00000000
  22      -0.00000000
  23      -0.00520405
  24      -0.00507782
  25      -0.00507782
  26      -0.00000000
  27       0.00000000
  28      -0.00000000
  29       2.27245130
  30       0.10374397
  31       0.10374397
  32       0.00000000
  33      -0.00000000
  34       0.00000000
  35       0.18822626
  36     -17.78279723
  37       2.73912357
  38      -1.60639119
  39       0.54418293
  40      -0.05150397
  41       0.04811442
  42      -0.02544215
  43       0.00047614
  44      -0.00029652
  45      -0.02596048
  46       0.00000000
  47      -0.00000000
  48       8.77051529
  49      -0.00000000
  50       0.00000000
  51      -1.64428836
  52       0.00000000
  53       0.00000000
  54       0.70721823
  55      -0.00000000
  56      -0.00000000
  57       0.00520405
  58       0.00507782
  59       0.00507782
  60      -0.00000000
  61       0.00000000
  62       0.00000000
  63      -2.27245130
  64      -0.10374397
  65      -0.10374397
  66      -0.00000000
  67      -0.00000000
  68      -0.00000000
Ene=     1.80925E-02
Spin= Alpha
Occup=   0.0000000000
   1       0.00000000
   2       0.00000000
   3      -0.00000000
   4       0.00000000
   5      -0.00000000
   6      -0.00000000
   7       0.00000000
   8      -0.00000000
   9       0.00000000
  10      -0.00000000
  11      -0.00000000
  12       0.05613017
  13      -0.05275315
  14       0.00000000
  15      -0.16246197
  16       0.15268758
  17      -0.00000000
  18       0.68505881
  19      -0.64384283
  20       0.00000000
  21      -0.70932355
  22       0.66664770
  23      -0.00000000
  24       0.00000000
  25       0.00000000
  26      -0.04561864
  27       0.04287403
  28      -0.00000000
  29       0.00000000
  30       0.00000000
  31       0.00000000
  32       0.08736409
  33      -0.08210790
  34       0.00000000
  35       0.00000000
  36      -0.00000000
  37       0.00000000
  38      -0.00000000
  39       0.00000000
  40      -0.00000000
  41       0.00000000
  42      -0.00000000
  43       0.00000000
  44      -0.00000000
  45       0.00000000
  46       0.05613017
  47      -0.05275315
  48       0.00000000
  49      -0.16246197
  50       0.15268758
  51      -0.00000000
  52       0.68505881
  53      -0.64384283
  54       0.00000000
  55      -0.70932355
  56       0.66664770
  57      -0.00000000
  58      -0.00000000
  59      -0.00000000
  60       0.04561864
  61      -0.04287403
  62       0.00000000
  63      -0.00000000
  64       0.00000000
  65       0.00000000
  66      -0.08736409
  67       0.08210790
  68      -0.00000000
Ene=     1.80925E-02
Spin= Alpha
Occup=   0.0000000000
   1       0.00000000
   2      -0.00000000
   3      -0.00000000
   4       0.00000000
   5      -0.00000000
   6       0.00000000
   7      -0.00000000
   8       0.00000000
   9      -0.00000000
  10       0.00000000
  11      -0.00000000
  12      -0.05275315
  13      -0.05613017
  14      -0.00000000
  15       0.15268758
  16       0.16246197
  17      -0.00000000
  18      -0.64384283
  19      -0.68505881
  20       0.00000000
  21       0.66664770
  22       0.70932355
  23      -0.00000000
  24      -0.00000000
  25      -0.00000000
  26       0.04287403
  27       0.04561864
  28      -0.00000000
  29      -0.00000000
  30      -0.00000000
  31      -0.00000000
  32      -0.08210790
  33      -0.08736409
  34       0.00000000
  35      -0.00000000
  36       0.00000000
  37       0.00000000
  38      -0.00000000
  39       0.00000000
  40      -0.00000000
  41       0.00000000
  42      -0.00000000
  43      -0.00000000
  44       0.00000000
  45      -0.00000000
  46      -0.05275315
  47      -0.05613017
  48      -0.00000000
  49       0.15268758
  50       0.16246197
  51      -0.00000000
  52      -0.64384283
  53      -0.68505881
  54       0.00000000
  55       0.66664770
  56       0.70932355
  57       0.00000000
  58       0.00000000
  59       0.00000000
  60      -0.04287403
  61      -0.04561864
  62       0.00000000
  63       0.00000000
  64       0.00000000
  65       0.00000000
  66       0.08210790
  67       0.08736409
  68       0.00000000
Ene=     2.15254E-02
Spin= Alpha
Occup=   0.0000000000
   1       0.30921175
   2       0.04341123
   3      -0.16405768
   4       1.04234741
   5      -0.67400179
   6      -0.02291932
   7      -0.07056907
   8       0.04694863
   9       0.00163885
  10       0.00019193
  11      -0.41846031
  12      -0.00000000
  13       0.00000000
  14       0.10228157
  15       0.00000000
  16      -0.00000000
  17      -0.17604795
  18      -0.00000000
  19       0.00000000
  20      -0.31627903
  21       0.00000000
  22      -0.00000000
  23      -0.19356363
  24      -0.01655046
  25      -0.01655046
  26      -0.00000000
  27       0.00000000
  28       0.00000000
  29      -0.02859139
  30      -0.03786957
  31      -0.03786957
  32       0.00000000
  33       0.00000000
  34      -0.00000000
  35       0.30921175
  36       0.04341123
  37      -0.16405768
  38       1.04234741
  39      -0.67400179
  40      -0.02291932
  41      -0.07056907
  42       0.04694863
  43       0.00163885
  44       0.00019193
  45       0.41846031
  46       0.00000000
  47      -0.00000000
  48      -0.10228157
  49      -0.00000000
  50       0.00000000
  51       0.17604795
  52       0.00000000
  53      -0.00000000
  54       0.31627903
  55      -0.00000000
  56       0.00000000
  57      -0.19356363
  58      -0.01655046
  59      -0.01655046
  60      -0.00000000
  61       0.00000000
  62      -0.00000000
  63      -0.02859139
  64      -0.03786957
  65      -0.03786957
  66       0.00000000
  67       0.00000000
  68      -0.00000000
Ene=     2.34884E-02
Spin= Alpha
Occup=   0.0000000000
   1      -0.05252720
   2       5.76395102
   3      -1.71590784
   4       1.80904483
   5      -0.84997749
   6      -0.00946381
   7      -0.07910573
   8       0.05102909
   9       0.00147809
  10       0.00025261
  11      -0.04112813
  12       0.00000000
  13       0.00000000
  14       2.83639310
  15       0.00000000
  16      -0.00000000
  17      -0.87358732
  18      -0.00000000
  19       0.00000000
  20      -0.31818101
  21       0.00000000
  22      -0.00000000
  23      -0.02089666
  24      -0.03346547
  25      -0.03346547
  26       0.00000000
  27       0.00000000
  28      -0.00000000
  29       0.67785180
  30       0.00751287
  31       0.00751287
  32       0.00000000
  33      -0.00000000
  34       0.00000000
  35       0.05252720
  36      -5.76395102
  37       1.71590784
  38      -1.80904483
  39       0.84997749
  40       0.00946381
  41       0.07910573
  42      -0.05102909
  43      -0.00147809
  44      -0.00025261
  45      -0.04112813
  46      -0.00000000
  47      -0.00000000
  48       2.83639310
  49      -0.00000000
  50       0.00000000
  51      -0.87358732
  52       0.00000000
  53      -0.00000000
  54      -0.31818101
  55      -0.00000000
  56       0.00000000
  57       0.02089666
  58       0.03346547
  59       0.03346547
  60       0.00000000
  61       0.00000000
  62       0.00000000
  63      -0.67785180
  64      -0.00751287
  65      -0.00751287
  66       0.00000000
  67      -0.00000000
  68      -0.00000000
Ene=     2.44011E-02
Spin= Alpha
Occup=   0.0000000000
   1       0.00000000
   2      -0.00000000
   3       0.00000000
   4       0.00000000
   5      -0.00000000
   6      -0.00000000
   7      -0.00000000
   8       0.00000000
   9       0.00000000
  10       0.00000000
  11      -0.00000000
  12       0.68866291
  13      -2.93123192
  14      -0.00000000
  15      -0.17392379
  16       0.74029103
  17       0.00000000
  18       0.34704016
  19      -1.47714532
  20      -0.00000000
  21      -0.18502475
  22       0.78754127
  23      -0.00000000
  24      -0.00000000
  25      -0.00000000
  26       0.16170561
  27      -0.68828541
  28       0.00000000
  29      -0.00000000
  30      -0.00000000
  31      -0.00000000
  32      -0.02039933
  33       0.08682793
  34      -0.00000000
  35      -0.00000000
  36       0.00000000
  37       0.00000000
  38      -0.00000000
  39       0.00000000
  40      -0.00000000
  41       0.00000000
  42      -0.00000000
  43       0.00000000
  44      -0.00000000
  45       0.00000000
  46      -0.68866291
  47       2.93123192
  48      -0.00000000
  49       0.17392379
  50      -0.74029103
  51       0.00000000
  52      -0.34704016
  53       1.47714532
  54      -0.00000000
  55       0.18502475
  56      -0.78754127
  57      -0.00000000
  58       0.00000000
  59       0.00000000
  60       0.16170561
  61      -0.68828541
  62      -0.00000000
  63       0.00000000
  64       0.00000000
  65       0.00000000
  66      -0.02039933
  67       0.08682793
  68       0.00000000
Ene=     2.44011E-02
Spin= Alpha
Occup=   0.0000000000
   1      -0.00000000
   2       0.00000000
   3       0.00000000
   4      -0.00000000
   5       0.00000000
   6       0.00000000
   7      -0.00000000
   8       0.00000000
   9      -0.00000000
  10       0.00000000
  11      -0.00000000
  12      -2.93123192
  13      -0.68866291
  14       0.00000000
  15       0.74029103
  16       0.17392379
  17       0.00000000
  18      -1.47714532
  19      -0.34704016
  20      -0.00000000
  21       0.78754127
  22       0.18502475
  23       0.00000000
  24       0.00000000
  25       0.00000000
  26      -0.68828541
  27      -0.16170561
  28       0.00000000
  29       0.00000000
  30       0.00000000
  31       0.00000000
  32       0.08682793
  33       0.02039933
  34       0.00000000
  35       0.00000000
  36      -0.00000000
  37       0.00000000
  38      -0.00000000
  39       0.00000000
  40       0.00000000
  41       0.00000000
  42      -0.00000000
  43      -0.00000000
  44       0.00000000
  45      -0.00000000
  46       2.93123192
  47       0.68866291
  48       0.00000000
  49      -0.74029103
  50      -0.17392379
  51      -0.00000000
  52       1.47714532
  53       0.34704016
  54       0.00000000
  55      -0.78754127
  56      -0.18502475
  57       0.00000000
  58       0.00000000
  59       0.00000000
  60      -0.68828541
  61      -0.16170561
  62      -0.00000000
  63      -0.00000000
  64       0.00000000
  65       0.00000000
  66       0.08682793
  67       0.02039933
  68       0.00000000
Ene=     3.04965E-02
Spin= Alpha
Occup=   0.0000000000
   1       1.70071120
   2      -0.38456102
   3       0.72293914
   4      -0.94499216
   5       0.39368075
   6       0.00529589
   7       0.03081500
   8      -0.01986722
   9      -0.00058178
  10      -0.00009918
  11      -2.61527816
  12       0.00000000
  13      -0.00000000
  14       0.85639246
  15      -0.00000000
  16       0.00000000
  17      -1.12604331
  18       0.00000000
  19      -0.00000000
  20       0.72583471
  21       0.00000000
  22      -0.00000000
  23      -1.21375021
  24      -0.06273971
  25      -0.06273971
  26       0.00000000
  27      -0.00000000
  28       0.00000000
  29       0.21263356
  30      -0.10326453
  31      -0.10326453
  32      -0.00000000
  33       0.00000000
  34      -0.00000000
  35       1.70071120
  36      -0.38456102
  37       0.72293914
  38      -0.94499216
  39       0.39368075
  40       0.00529589
  41       0.03081500
  42      -0.01986722
  43      -0.00058178
  44      -0.00009918
  45       2.61527816
  46      -0.00000000
  47       0.00000000
  48      -0.85639246
  49       0.00000000
  50      -0.00000000
  51       1.12604331
  52      -0.00000000
  53       0.00000000
  54      -0.72583471
  55       0.00000000
  56       0.00000000
  57      -1.21375021
  58      -0.06273971
  59      -0.06273971
  60       0.00000000
  61      -0.00000000
  62      -0.00000000
  63       0.21263356
  64      -0.10326453
  65      -0.10326453
  66      -0.00000000
  67       0.00000000
  68       0.00000000
Ene=     3.09665E-02
Spin= Alpha
Occup=   0.0000000000
   1      -5.34725756
   2      -2.55182930
   3       4.94603218
   4      -2.27553300
   5       0.61635634
   6       0.07576963
   7       0.03796930
   8      -0.03156659
   9      -0.00242809
  10       0.00005442
  11       3.16510889
  12       0.00000000
  13      -0.00000000
  14      -1.50819075
  15      -0.00000000
  16       0.00000000
  17       0.42805359
  18       0.00000000
  19      -0.00000000
  20      -0.27877721
  21      -0.00000000
  22       0.00000000
  23       1.98279636
  24       0.56181174
  25       0.56181174
  26       0.00000000
  27      -0.00000000
  28      -0.00000000
  29       0.90744489
  30       1.72484382
  31       1.72484382
  32      -0.00000000
  33       0.00000000
  34       0.00000000
  35      -5.34725756
  36      -2.55182930
  37       4.94603218
  38      -2.27553300
  39       0.61635634
  40       0.07576963
  41       0.03796930
  42      -0.03156659
  43      -0.00242809
  44       0.00005442
  45      -3.16510889
  46      -0.00000000
  47       0.00000000
  48       1.50819075
  49       0.00000000
  50      -0.00000000
  51      -0.42805359
  52      -0.00000000
  53       0.00000000
  54       0.27877721
  55       0.00000000
  56      -0.00000000
  57       1.98279636
  58       0.56181174
  59       0.56181174
  60       0.00000000
  61      -0.00000000
  62       0.00000000
  63       0.90744489
  64       1.72484382
  65       1.72484382
  66      -0.00000000
  67       0.00000000
  68      -0.00000000
Ene=     3.16995E-02
Spin= Alpha
Occup=   0.0000000000
   1       0.24852237
   2     -17.47894414
   3      -0.30131257
   4       0.81211721
   5      -0.34488847
   6       0.00512844
   7      -0.02627609
   8       0.01596361
   9       0.00026387
  10       0.00010862
  11      -0.19424218
  12       0.00000000