[Molden Format]
[Title]
 Molden2AIM, Version 3.1.0 (02/25/2015)           Time: Thu Oct 17 19:56:09 2024

[Atoms] AU
E+       1       4     0.00000000     0.00000000     0.00000000
E+       2       4    55.60000000     0.00000000     0.00000000
[GTO]
    1 0
 S   1 1.0
    0.1000000000D-03      0.1000000000D+01
 S   1 1.0
    0.3000000000D-03      0.1000000000D+01
 S   1 1.0
    0.9000000000D-03      0.1000000000D+01
 S   1 1.0
    0.2700000000D-02      0.1000000000D+01
 S   1 1.0
    0.8100000000D-02      0.1000000000D+01
 S   1 1.0
    0.2430000000D-01      0.1000000000D+01
 S   1 1.0
    0.7290000000D-01      0.1000000000D+01
 S   1 1.0
    0.2187000000D+00      0.1000000000D+01
 S   1 1.0
    0.6561000000D+00      0.1000000000D+01
 S   1 1.0
    0.1968300000D+01      0.1000000000D+01
 P   1 1.0
    0.1000000000D-03      0.1000000000D+01
 P   1 1.0
    0.3000000000D-03      0.1000000000D+01
 P   1 1.0
    0.9000000000D-03      0.1000000000D+01
 P   1 1.0
    0.2700000000D-02      0.1000000000D+01
 D   1 1.0
    0.1000000000D-03      0.1000000000D+01
 D   1 1.0
    0.3000000000D-03      0.1000000000D+01

    2 0
 S   1 1.0
    0.1000000000D-03      0.1000000000D+01
 S   1 1.0
    0.3000000000D-03      0.1000000000D+01
 S   1 1.0
    0.9000000000D-03      0.1000000000D+01
 S   1 1.0
    0.2700000000D-02      0.1000000000D+01
 S   1 1.0
    0.8100000000D-02      0.1000000000D+01
 S   1 1.0
    0.2430000000D-01      0.1000000000D+01
 S   1 1.0
    0.7290000000D-01      0.1000000000D+01
 S   1 1.0
    0.2187000000D+00      0.1000000000D+01
 S   1 1.0
    0.6561000000D+00      0.1000000000D+01
 S   1 1.0
    0.1968300000D+01      0.1000000000D+01
 P   1 1.0
    0.1000000000D-03      0.1000000000D+01
 P   1 1.0
    0.3000000000D-03      0.1000000000D+01
 P   1 1.0
    0.9000000000D-03      0.1000000000D+01
 P   1 1.0
    0.2700000000D-02      0.1000000000D+01
 D   1 1.0
    0.1000000000D-03      0.1000000000D+01
 D   1 1.0
    0.3000000000D-03      0.1000000000D+01


[MO]
 Ene=          0.00336586
 Spin= Alpha
 Occup=        1.00000000
    1       -0.3414801300
    2       -0.1815552800
    3        0.5372198300
    4        0.0127079200
    5        0.1447025500
    6        0.1071630100
    7        0.0715629000
    8       -0.0570916600
    9       -0.0037387100
   10        0.0000331300
   11        0.3312729400
   12        0.0000000000
   13        0.0000000000
   14       -0.1189184100
   15       -0.0000000000
   16       -0.0000000000
   17        0.2110883200
   18        0.0000000000
   19        0.0000000000
   20        0.1687298900
   21       -0.0000000000
   22       -0.0000000000
   23        0.1794205100
   24        0.0234564200
   25        0.0234564200
   26        0.0000000000
   27        0.0000000000
   28       -0.0000000000
   29        0.0663179600
   30        0.0794679500
   31        0.0794679500
   32       -0.0000000000
   33       -0.0000000000
   34       -0.0000000000
   35       -0.3414801300
   36       -0.1815552800
   37        0.5372198300
   38        0.0127079200
   39        0.1447025500
   40        0.1071630100
   41        0.0715629000
   42       -0.0570916600
   43       -0.0037387100
   44        0.0000331300
   45       -0.3312729400
   46       -0.0000000000
   47       -0.0000000000
   48        0.1189184100
   49        0.0000000000
   50        0.0000000000
   51       -0.2110883200
   52       -0.0000000000
   53        0.0000000000
   54       -0.1687298900
   55        0.0000000000
   56       -0.0000000000
   57        0.1794205100
   58        0.0234564200
   59        0.0234564200
   60        0.0000000000
   61        0.0000000000
   62       -0.0000000000
   63        0.0663179600
   64        0.0794679500
   65        0.0794679500
   66       -0.0000000000
   67       -0.0000000000
   68        0.0000000000
 Ene=          0.00459258
 Spin= Alpha
 Occup=        0.00000000
    1       -0.0202497200
    2        1.0307816900
    3        0.0218763700
    4        0.4080803700
    5        0.1253976500
    6        0.1940837800
    7        0.0961123500
    8       -0.0819863100
    9       -0.0063498900
   10        0.0001872100
   11        0.0327581100
   12       -0.0000000000
   13       -0.0000000000
   14        0.6533125300
   15        0.0000000000
   16        0.0000000000
   17       -0.1316018400
   18        0.0000000000
   19       -0.0000000000
   20        0.2950703700
   21       -0.0000000000
   22        0.0000000000
   23        0.0261561500
   24        0.0215564700
   25        0.0215564700
   26       -0.0000000000
   27       -0.0000000000
   28       -0.0000000000
   29        0.2440724800
   30        0.0592052400
   31        0.0592052400
   32        0.0000000000
   33        0.0000000000
   34        0.0000000000
   35        0.0202497200
   36       -1.0307816900
   37       -0.0218763700
   38       -0.4080803700
   39       -0.1253976500
   40       -0.1940837800
   41       -0.0961123500
   42        0.0819863100
   43        0.0063498900
   44       -0.0001872100
   45        0.0327581100
   46        0.0000000000
   47        0.0000000000
   48        0.6533125300
   49       -0.0000000000
   50       -0.0000000000
   51       -0.1316018400
   52        0.0000000000
   53        0.0000000000
   54        0.2950703700
   55       -0.0000000000
   56        0.0000000000
   57       -0.0261561500
   58       -0.0215564700
   59       -0.0215564700
   60       -0.0000000000
   61       -0.0000000000
   62        0.0000000000
   63       -0.2440724800
   64       -0.0592052400
   65       -0.0592052400
   66        0.0000000000
   67        0.0000000000
   68       -0.0000000000
 Ene=          0.00712782
 Spin= Alpha
 Occup=        0.00000000
    1        0.5205197100
    2        0.1248308300
    3       -0.8279822600
    4        0.7353959600
    5        0.0728363400
    6        0.2023986700
    7        0.0798455200
    8       -0.0723583800
    9       -0.0063503000
   10        0.0002695900
   11       -0.7194441500
   12        0.0000000000
   13        0.0000000000
   14        0.2735946500
   15       -0.0000000000
   16       -0.0000000000
   17       -0.5335560000
   18        0.0000000000
   19        0.0000000000
   20        0.2498259400
   21        0.0000000000
   22       -0.0000000000
   23       -0.3629089000
   24       -0.0183183600
   25       -0.0183183600
   26        0.0000000000
   27        0.0000000000
   28        0.0000000000
   29       -0.0081235700
   30       -0.0596538300
   31       -0.0596538300
   32       -0.0000000000
   33       -0.0000000000
   34       -0.0000000000
   35        0.5205197100
   36        0.1248308300
   37       -0.8279822600
   38        0.7353959600
   39        0.0728363400
   40        0.2023986700
   41        0.0798455200
   42       -0.0723583800
   43       -0.0063503000
   44        0.0002695900
   45        0.7194441500
   46       -0.0000000000
   47       -0.0000000000
   48       -0.2735946500
   49        0.0000000000
   50        0.0000000000
   51        0.5335560000
   52       -0.0000000000
   53       -0.0000000000
   54       -0.2498259400
   55        0.0000000000
   56        0.0000000000
   57       -0.3629089000
   58       -0.0183183600
   59       -0.0183183600
   60        0.0000000000
   61        0.0000000000
   62       -0.0000000000
   63       -0.0081235700
   64       -0.0596538300
   65       -0.0596538300
   66       -0.0000000000
   67       -0.0000000000
   68        0.0000000000
 Ene=          0.01353390
 Spin= Alpha
 Occup=        0.00000000
    1        0.0111348600
    2        2.6369073900
    3       -0.8591749700
    4       -0.2143519600
    5        0.5869330300
    6        0.0876097700
    7        0.1099527800
    8       -0.0791489900
    9       -0.0038217900
   10       -0.0001598100
   11       -0.1073556200
   12       -0.0000000000
   13       -0.0000000000
   14        1.4138667300
   15        0.0000000000
   16        0.0000000000
   17       -0.2620220400
   18       -0.0000000000
   19       -0.0000000000
   20       -0.3982409800
   21        0.0000000000
   22        0.0000000000
   23       -0.0913212500
   24       -0.0712987000
   25       -0.0712987000
   26       -0.0000000000
   27       -0.0000000000
   28        0.0000000000
   29        0.2705054900
   30       -0.1303385000
   31       -0.1303385000
   32        0.0000000000
   33       -0.0000000000
   34       -0.0000000000
   35       -0.0111348600
   36       -2.6369073900
   37        0.8591749700
   38        0.2143519600
   39       -0.5869330300
   40       -0.0876097700
   41       -0.1099527800
   42        0.0791489900
   43        0.0038217900
   44        0.0001598100
   45       -0.1073556200
   46        0.0000000000
   47        0.0000000000
   48        1.4138667300
   49       -0.0000000000
   50       -0.0000000000
   51       -0.2620220400
   52        0.0000000000
   53       -0.0000000000
   54       -0.3982409800
   55       -0.0000000000
   56       -0.0000000000
   57        0.0913212500
   58        0.0712987000
   59        0.0712987000
   60       -0.0000000000
   61       -0.0000000000
   62       -0.0000000000
   63       -0.2705054900
   64        0.1303385000
   65        0.1303385000
   66        0.0000000000
   67       -0.0000000000
   68       -0.0000000000
 Ene=          0.01550780
 Spin= Alpha
 Occup=        0.00000000
    1       -0.0000000000
    2       -0.0000000000
    3        0.0000000000
    4       -0.0000000000
    5        0.0000000000
    6        0.0000000000
    7        0.0000000000
    8        0.0000000000
    9       -0.0000000000
   10       -0.0000000000
   11        0.0000000000
   12        0.0585533800
   13        0.0210825900
   14       -0.0000000000
   15       -0.1492399400
   16       -0.0537349700
   17        0.0000000000
   18        0.5347993700
   19        0.1925585600
   20       -0.0000000000
   21        0.1681234300
   22        0.0605341100
   23        0.0000000000
   24       -0.0000000000
   25       -0.0000000000
   26       -0.0694314700
   27       -0.0249993300
   28        0.0000000000
   29       -0.0000000000
   30        0.0000000000
   31        0.0000000000
   32        0.1120038000
   33        0.0403278100
   34       -0.0000000000
   35       -0.0000000000
   36        0.0000000000
   37       -0.0000000000
   38        0.0000000000
   39        0.0000000000
   40        0.0000000000
   41       -0.0000000000
   42        0.0000000000
   43       -0.0000000000
   44        0.0000000000
   45       -0.0000000000
   46        0.0585533800
   47        0.0210825900
   48       -0.0000000000
   49       -0.1492399400
   50       -0.0537349700
   51        0.0000000000
   52        0.5347993700
   53        0.1925585600
   54        0.0000000000
   55        0.1681234300
   56        0.0605341100
   57        0.0000000000
   58        0.0000000000
   59        0.0000000000
   60        0.0694314700
   61        0.0249993300
   62       -0.0000000000
   63        0.0000000000
   64       -0.0000000000
   65       -0.0000000000
   66       -0.1120038000
   67       -0.0403278100
   68        0.0000000000
 Ene=          0.01550780
 Spin= Alpha
 Occup=        0.00000000
    1       -0.0000000000
    2        0.0000000000
    3       -0.0000000000
    4        0.0000000000
    5       -0.0000000000
    6       -0.0000000000
    7       -0.0000000000
    8        0.0000000000
    9       -0.0000000000
   10        0.0000000000
   11       -0.0000000000
   12        0.0210825900
   13       -0.0585533800
   14        0.0000000000
   15       -0.0537349700
   16        0.1492399400
   17       -0.0000000000
   18        0.1925585600
   19       -0.5347993700
   20        0.0000000000
   21        0.0605341100
   22       -0.1681234300
   23       -0.0000000000
   24        0.0000000000
   25        0.0000000000
   26       -0.0249993300
   27        0.0694314700
   28       -0.0000000000
   29        0.0000000000
   30        0.0000000000
   31        0.0000000000
   32        0.0403278100
   33       -0.1120038000
   34        0.0000000000
   35        0.0000000000
   36       -0.0000000000
   37        0.0000000000
   38        0.0000000000
   39       -0.0000000000
   40       -0.0000000000
   41       -0.0000000000
   42        0.0000000000
   43        0.0000000000
   44       -0.0000000000
   45        0.0000000000
   46        0.0210825900
   47       -0.0585533800
   48        0.0000000000
   49       -0.0537349700
   50        0.1492399400
   51       -0.0000000000
   52        0.1925585600
   53       -0.5347993700
   54       -0.0000000000
   55        0.0605341100
   56       -0.1681234300
   57       -0.0000000000
   58       -0.0000000000
   59       -0.0000000000
   60        0.0249993300
   61       -0.0694314700
   62        0.0000000000
   63       -0.0000000000
   64       -0.0000000000
   65       -0.0000000000
   66       -0.0403278100
   67        0.1120038000
   68       -0.0000000000
 Ene=          0.01583210
 Spin= Alpha
 Occup=        0.00000000
    1       -0.4942692500
    2       -0.4206257000
    3        0.0009691400
    4        1.1594667600
    5       -0.8400735200
    6        0.0071402600
    7       -0.1150194500
    8        0.0724888700
    9        0.0015258300
   10        0.0004302200
   11       -0.3151553300
   12        0.0000000000
   13       -0.0000000000
   14        0.0438944900
   15       -0.0000000000
   16       -0.0000000000
   17       -0.5274905200
   18        0.0000000000
   19        0.0000000000
   20        0.7888566000
   21       -0.0000000000
   22        0.0000000000
   23       -0.0469971800
   24        0.0960696900
   25        0.0960696900
   26        0.0000000000
   27       -0.0000000000
   28       -0.0000000000
   29        0.2299313500
   30        0.3069099400
   31        0.3069099400
   32       -0.0000000000
   33       -0.0000000000
   34        0.0000000000
   35       -0.4942692500
   36       -0.4206257000
   37        0.0009691400
   38        1.1594667600
   39       -0.8400735200
   40        0.0071402600
   41       -0.1150194500
   42        0.0724888700
   43        0.0015258300
   44        0.0004302200
   45        0.3151553300
   46       -0.0000000000
   47        0.0000000000
   48       -0.0438944900
   49        0.0000000000
   50        0.0000000000
   51        0.5274905200
   52       -0.0000000000
   53        0.0000000000
   54       -0.7888566000
   55       -0.0000000000
   56        0.0000000000
   57       -0.0469971800
   58        0.0960696900
   59        0.0960696900
   60        0.0000000000
   61       -0.0000000000
   62        0.0000000000
   63        0.2299313500
   64        0.3069099400
   65        0.3069099400
   66       -0.0000000000
   67       -0.0000000000
   68       -0.0000000000
 Ene=          0.01804590
 Spin= Alpha
 Occup=        0.00000000
    1        0.0000000000
    2       -0.0000000000
    3        0.0000000000
    4       -0.0000000000
    5        0.0000000000
    6       -0.0000000000
    7        0.0000000000
    8       -0.0000000000
    9       -0.0000000000
   10        0.0000000000
   11        0.0000000000
   12       -0.0485663700
   13        0.0853102500
   14       -0.0000000000
   15       -0.0085664700
   16        0.0150476100
   17        0.0000000000
   18       -0.0427689900
   19        0.0751267400
   20       -0.0000000000
   21       -0.3277882500
   22        0.5757831500
   23        0.0000000000
   24       -0.0000000000
   25       -0.0000000000
   26       -0.0087523800
   27        0.0153741700
   28       -0.0000000000
   29       -0.0000000000
   30       -0.0000000000
   31       -0.0000000000
   32       -0.0200646800
   33        0.0352450200
   34       -0.0000000000
   35       -0.0000000000
   36        0.0000000000
   37       -0.0000000000
   38        0.0000000000
   39       -0.0000000000
   40        0.0000000000
   41       -0.0000000000
   42        0.0000000000
   43       -0.0000000000
   44        0.0000000000
   45       -0.0000000000
   46        0.0485663700
   47       -0.0853102500
   48       -0.0000000000
   49        0.0085664700
   50       -0.0150476100
   51        0.0000000000
   52        0.0427689900
   53       -0.0751267400
   54       -0.0000000000
   55        0.3277882500
   56       -0.5757831500
   57        0.0000000000
   58        0.0000000000
   59        0.0000000000
   60       -0.0087523800
   61        0.0153741700
   62        0.0000000000
   63        0.0000000000
   64        0.0000000000
   65        0.0000000000
   66       -0.0200646800
   67        0.0352450200
   68        0.0000000000
 Ene=          0.01804590
 Spin= Alpha
 Occup=        0.00000000
    1        0.0000000000
    2        0.0000000000
    3       -0.0000000000
    4        0.0000000000
    5       -0.0000000000
    6       -0.0000000000
    7       -0.0000000000
    8        0.0000000000
    9       -0.0000000000
   10        0.0000000000
   11       -0.0000000000
   12        0.0853102500
   13        0.0485663700
   14        0.0000000000
   15        0.0150476100
   16        0.0085664700
   17       -0.0000000000
   18        0.0751267400
   19        0.0427689900
   20        0.0000000000
   21        0.5757831500
   22        0.3277882500
   23       -0.0000000000
   24        0.0000000000
   25        0.0000000000
   26        0.0153741700
   27        0.0087523800
   28        0.0000000000
   29        0.0000000000
   30        0.0000000000
   31        0.0000000000
   32        0.0352450200
   33        0.0200646800
   34       -0.0000000000
   35        0.0000000000
   36       -0.0000000000
   37        0.0000000000
   38       -0.0000000000
   39        0.0000000000
   40       -0.0000000000
   41        0.0000000000
   42       -0.0000000000
   43        0.0000000000
   44       -0.0000000000
   45        0.0000000000
   46       -0.0853102500
   47       -0.0485663700
   48        0.0000000000
   49       -0.0150476100
   50       -0.0085664700
   51       -0.0000000000
   52       -0.0751267400
   53       -0.0427689900
   54        0.0000000000
   55       -0.5757831500
   56       -0.3277882500
   57       -0.0000000000
   58       -0.0000000000
   59       -0.0000000000
   60        0.0153741700
   61        0.0087523800
   62        0.0000000000
   63       -0.0000000000
   64       -0.0000000000
   65       -0.0000000000
   66        0.0352450200
   67        0.0200646800
   68        0.0000000000
 Ene=          0.02005980
 Spin= Alpha
 Occup=        0.00000000
    1        0.0744113000
    2       -9.7269889300
    3        2.4851321200
    4       -1.7523511800
    5        0.6544840000
    6       -0.0681091000
    7        0.0628612700
    8       -0.0331929600
    9        0.0006572300
   10       -0.0003911400
   11        0.0511749500
   12        0.0000000000
   13        0.0000000000
   14       -5.6936076200
   15       -0.0000000000
   16       -0.0000000000
   17        1.5678781700
   18        0.0000000000
   19        0.0000000000
   20       -0.6968992100
   21        0.0000000000
   22       -0.0000000000
   23        0.0333921100
   24        0.0425176800
   25        0.0425176800
   26        0.0000000000
   27        0.0000000000
   28       -0.0000000000
   29       -1.6179218800
   30       -0.0522664900
   31       -0.0522664900
   32       -0.0000000000
   33       -0.0000000000
   34        0.0000000000
   35       -0.0744113000
   36        9.7269889300
   37       -2.4851321200
   38        1.7523511800
   39       -0.6544840000
   40        0.0681091000
   41       -0.0628612700
   42        0.0331929600
   43       -0.0006572300
   44        0.0003911400
   45        0.0511749500
   46       -0.0000000000
   47       -0.0000000000
   48       -5.6936076200
   49        0.0000000000
   50        0.0000000000
   51        1.5678781700
   52       -0.0000000000
   53        0.0000000000
   54       -0.6968992100
   55        0.0000000000
   56       -0.0000000000
   57       -0.0333921100
   58       -0.0425176800
   59       -0.0425176800
   60        0.0000000000
   61        0.0000000000
   62        0.0000000000
   63        1.6179218800
   64        0.0522664900
   65        0.0522664900
   66       -0.0000000000
   67       -0.0000000000
   68       -0.0000000000
 Ene=          0.02157290
 Spin= Alpha
 Occup=        0.00000000
    1       -0.0000000000
    2        0.0000000000
    3        0.0000000000
    4       -0.0000000000
    5        0.0000000000
    6       -0.0000000000
    7        0.0000000000
    8       -0.0000000000
    9        0.0000000000
   10        0.0000000000
   11        0.0000000000
   12        0.0039402700
   13       -0.0697810100
   14        0.0000000000
   15       -0.0105671600
   16        0.1871413400
   17        0.0000000000
   18        0.0474999500
   19       -0.8412107200
   20       -0.0000000000
   21       -0.0561881600
   22        0.9950763300
   23        0.0000000000
   24        0.0000000000
   25        0.0000000000
   26       -0.0044033200
   27        0.0779814700
   28       -0.0000000000
   29        0.0000000000
   30        0.0000000000
   31        0.0000000000
   32        0.0072090800
   33       -0.1276708000
   34        0.0000000000
   35       -0.0000000000
   36       -0.0000000000
   37       -0.0000000000
   38        0.0000000000
   39       -0.0000000000
   40       -0.0000000000
   41        0.0000000000
   42        0.0000000000
   43       -0.0000000000
   44        0.0000000000
   45       -0.0000000000
   46        0.0039402700
   47       -0.0697810100
   48        0.0000000000
   49       -0.0105671600
   50        0.1871413400
   51        0.0000000000
   52        0.0474999500
   53       -0.8412107200
   54       -0.0000000000
   55       -0.0561881600
   56        0.9950763300
   57        0.0000000000
   58       -0.0000000000
   59       -0.0000000000
   60        0.0044033200
   61       -0.0779814700
   62        0.0000000000
   63       -0.0000000000
   64        0.0000000000
   65        0.0000000000
   66       -0.0072090800
   67        0.1276708000
   68       -0.0000000000
 Ene=          0.02157290
 Spin= Alpha
 Occup=        0.00000000
    1        0.0000000000
    2        0.0000000000
    3        0.0000000000
    4       -0.0000000000
    5        0.0000000000
    6        0.0000000000
    7        0.0000000000
    8       -0.0000000000
    9        0.0000000000
   10        0.0000000000
   11        0.0000000000
   12        0.0697810100
   13        0.0039402700
   14        0.0000000000
   15       -0.1871413400
   16       -0.0105671600
   17        0.0000000000
   18        0.8412107200
   19        0.0474999500
   20       -0.0000000000
   21       -0.9950763300
   22       -0.0561881600
   23        0.0000000000
   24       -0.0000000000
   25       -0.0000000000
   26       -0.0779814700
   27       -0.0044033200
   28       -0.0000000000
   29       -0.0000000000
   30       -0.0000000000
   31       -0.0000000000
   32        0.1276708000
   33        0.0072090800
   34        0.0000000000
   35        0.0000000000
   36       -0.0000000000
   37       -0.0000000000
   38        0.0000000000
   39       -0.0000000000
   40        0.0000000000
   41       -0.0000000000
   42        0.0000000000
   43       -0.0000000000
   44        0.0000000000
   45       -0.0000000000
   46        0.0697810100
   47        0.0039402700
   48        0.0000000000
   49       -0.1871413400
   50       -0.0105671600
   51        0.0000000000
   52        0.8412107200
   53        0.0474999500
   54       -0.0000000000
   55       -0.9950763300
   56       -0.0561881600
   57        0.0000000000
   58       -0.0000000000
   59       -0.0000000000
   60        0.0779814700
   61        0.0044033200
   62        0.0000000000
   63       -0.0000000000
   64       -0.0000000000
   65       -0.0000000000
   66       -0.1276708000
   67       -0.0072090800
   68       -0.0000000000
 Ene=          0.02595960
 Spin= Alpha
 Occup=        0.00000000
    1        0.6335900400
    2        0.0843397100
    3       -0.1266306300
    4        0.8388923200
    5       -0.5959210900
    6       -0.0199251500
    7       -0.0645191200
    8        0.0429312300
    9        0.0015020600
   10        0.0001743700
   11       -0.6611991800
   12       -0.0000000000
   13        0.0000000000
   14        0.2392862000
   15       -0.0000000000
   16       -0.0000000000
   17       -0.2841192600
   18        0.0000000000
   19        0.0000000000
   20       -0.2555965100
   21       -0.0000000000
   22        0.0000000000
   23       -0.3629522800
   24       -0.0400861800
   25       -0.0400861800
   26       -0.0000000000
   27        0.0000000000
   28        0.0000000000
   29       -0.0389111000
   30       -0.1044470500
   31       -0.1044470500
   32       -0.0000000000
   33       -0.0000000000
   34       -0.0000000000
   35        0.6335900400
   36        0.0843397100
   37       -0.1266306300
   38        0.8388923200
   39       -0.5959210900
   40       -0.0199251500
   41       -0.0645191200
   42        0.0429312300
   43        0.0015020600
   44        0.0001743700
   45        0.6611991800
   46        0.0000000000
   47       -0.0000000000
   48       -0.2392862000
   49        0.0000000000
   50        0.0000000000
   51        0.2841192600
   52       -0.0000000000
   53       -0.0000000000
   54        0.2555965100
   55        0.0000000000
   56        0.0000000000
   57       -0.3629522800
   58       -0.0400861800
   59       -0.0400861800
   60       -0.0000000000
   61        0.0000000000
   62       -0.0000000000
   63       -0.0389111000
   64       -0.1044470500
   65       -0.1044470500
   66       -0.0000000000
   67       -0.0000000000
   68        0.0000000000
 Ene=          0.02699000
 Spin= Alpha
 Occup=        0.00000000
    1       -0.0000000000
    2        0.0000000000
    3       -0.0000000000
    4        0.0000000000
    5       -0.0000000000
    6        0.0000000000
    7       -0.0000000000
    8        0.0000000000
    9        0.0000000000
   10       -0.0000000000
   11       -0.0000000000
   12       -1.1946549300
   13        1.4814976700
   14        0.0000000000
   15        0.3464182500
   16       -0.4295950400
   17       -0.0000000000
   18       -0.8984827800
   19        1.1142130800
   20        0.0000000000
   21        0.5363640200
   22       -0.6651477600
   23       -0.0000000000
   24       -0.0000000000
   25       -0.0000000000
   26       -0.3059951700
   27        0.3794661700
   28        0.0000000000
   29        0.0000000000
   30       -0.0000000000
   31       -0.0000000000
   32        0.0111657600
   33       -0.0138467200
   34       -0.0000000000
   35        0.0000000000
   36       -0.0000000000
   37       -0.0000000000
   38        0.0000000000
   39       -0.0000000000
   40        0.0000000000
   41       -0.0000000000
   42        0.0000000000
   43        0.0000000000
   44       -0.0000000000
   45       -0.0000000000
   46        1.1946549300
   47       -1.4814976700
   48        0.0000000000
   49       -0.3464182500
   50        0.4295950400
   51        0.0000000000
   52        0.8984827800
   53       -1.1142130800
   54       -0.0000000000
   55       -0.5363640200
   56        0.6651477600
   57       -0.0000000000
   58       -0.0000000000
   59       -0.0000000000
   60       -0.3059951700
   61        0.3794661700
   62       -0.0000000000
   63       -0.0000000000
   64       -0.0000000000
   65       -0.0000000000
   66        0.0111657600
   67       -0.0138467200
   68        0.0000000000
 Ene=          0.02699000
 Spin= Alpha
 Occup=        0.00000000
    1       -0.0000000000
    2        0.0000000000
    3       -0.0000000000
    4       -0.0000000000
    5        0.0000000000
    6       -0.0000000000
    7        0.0000000000
    8       -0.0000000000
    9        0.0000000000
   10       -0.0000000000
   11       -0.0000000000
   12       -1.4814976700
   13       -1.1946549300
   14        0.0000000000
   15        0.4295950400
   16        0.3464182500
   17       -0.0000000000
   18       -1.1142130800
   19       -0.8984827800
   20        0.0000000000
   21        0.6651477600
   22        0.5363640200
   23       -0.0000000000
   24       -0.0000000000
   25       -0.0000000000
   26       -0.3794661700
   27       -0.3059951700
   28       -0.0000000000
   29        0.0000000000
   30       -0.0000000000
   31       -0.0000000000
   32        0.0138467200
   33        0.0111657600
   34       -0.0000000000
   35        0.0000000000
   36       -0.0000000000
   37       -0.0000000000
   38        0.0000000000
   39       -0.0000000000
   40        0.0000000000
   41       -0.0000000000
   42        0.0000000000
   43        0.0000000000
   44       -0.0000000000
   45       -0.0000000000
   46        1.4814976700
   47        1.1946549300
   48        0.0000000000
   49       -0.4295950400
   50       -0.3464182500
   51        0.0000000000
   52        1.1142130800
   53        0.8984827800
   54        0.0000000000
   55       -0.6651477600
   56       -0.5363640200
   57        0.0000000000
   58       -0.0000000000
   59       -0.0000000000
   60       -0.3794661700
   61       -0.3059951700
   62       -0.0000000000
   63       -0.0000000000
   64        0.0000000000
   65       -0.0000000000
   66        0.0138467200
   67        0.0111657600
   68       -0.0000000000
 Ene=          0.02763070
 Spin= Alpha
 Occup=        0.00000000
    1       -0.0229377100
    2        2.2611229200
    3       -0.8818329800
    4        1.4434703700
    5       -0.7705075600
    6       -0.0034381000
    7       -0.0750498600
    8        0.0479710000
    9        0.0012949200
   10        0.0002500200
   11        0.0010767200
   12       -0.0000000000
   13       -0.0000000000
   14        1.4088685600
   15        0.0000000000
   16        0.0000000000