 Molden2AIM, Version 3.1.0 (02/25/2015)           Time: Thu Oct 17 19:53:37 2024
GAUSSIAN             68 MOL ORBITALS     68 PRIMITIVES        2 NUCLEI
  Be   1    (CENTRE  1)   0.00000000  0.00000000  0.00000000  CHARGE =  4.0
  Be   2    (CENTRE  2)  22.00000000  0.00000000  0.00000000  CHARGE =  4.0
CENTRE ASSIGNMENTS    1  1  1  1  1  1  1  1  1  1  1  1  1  1  1  1  1  1  1  1
CENTRE ASSIGNMENTS    1  1  1  1  1  1  1  1  1  1  1  1  1  1  2  2  2  2  2  2
CENTRE ASSIGNMENTS    2  2  2  2  2  2  2  2  2  2  2  2  2  2  2  2  2  2  2  2
CENTRE ASSIGNMENTS    2  2  2  2  2  2  2  2
TYPE ASSIGNMENTS      1  1  1  1  1  1  1  1  1  1  2  3  4  2  3  4  2  3  4  2
TYPE ASSIGNMENTS      3  4  5  6  7  8  9 10  5  6  7  8  9 10  1  1  1  1  1  1
TYPE ASSIGNMENTS      1  1  1  1  2  3  4  2  3  4  2  3  4  2  3  4  5  6  7  8
TYPE ASSIGNMENTS      9 10  5  6  7  8  9 10
EXPONENTS  0.1000000D-03 0.3000000D-03 0.9000000D-03 0.2700000D-02 0.8100000D-02
EXPONENTS  0.2430000D-01 0.7290000D-01 0.2187000D+00 0.6561000D+00 0.1968300D+01
EXPONENTS  0.1000000D-03 0.1000000D-03 0.1000000D-03 0.3000000D-03 0.3000000D-03
EXPONENTS  0.3000000D-03 0.9000000D-03 0.9000000D-03 0.9000000D-03 0.2700000D-02
EXPONENTS  0.2700000D-02 0.2700000D-02 0.1000000D-03 0.1000000D-03 0.1000000D-03
EXPONENTS  0.1000000D-03 0.1000000D-03 0.1000000D-03 0.3000000D-03 0.3000000D-03
EXPONENTS  0.3000000D-03 0.3000000D-03 0.3000000D-03 0.3000000D-03 0.1000000D-03
EXPONENTS  0.3000000D-03 0.9000000D-03 0.2700000D-02 0.8100000D-02 0.2430000D-01
EXPONENTS  0.7290000D-01 0.2187000D+00 0.6561000D+00 0.1968300D+01 0.1000000D-03
EXPONENTS  0.1000000D-03 0.1000000D-03 0.3000000D-03 0.3000000D-03 0.3000000D-03
EXPONENTS  0.9000000D-03 0.9000000D-03 0.9000000D-03 0.2700000D-02 0.2700000D-02
EXPONENTS  0.2700000D-02 0.1000000D-03 0.1000000D-03 0.1000000D-03 0.1000000D-03
EXPONENTS  0.1000000D-03 0.1000000D-03 0.3000000D-03 0.3000000D-03 0.3000000D-03
EXPONENTS  0.3000000D-03 0.3000000D-03 0.3000000D-03
MO    1     MO 0.0        OCC NO =    1.0000000  ORB. ENERGY =   -0.003809
  0.22784560D-04 -0.64333263D-04  0.13932147D-03  0.20236898D-02  0.40878761D-02
  0.81131287D-02  0.11021110D-01 -0.20605813D-01 -0.32964409D-02  0.13405611D-03
 -0.20972108D-05 -0.00000000D+00  0.00000000D+00  0.44249266D-05  0.00000000D+00
 -0.00000000D+00 -0.36000997D-06 -0.00000000D+00  0.00000000D+00  0.13244031D-04
  0.00000000D+00 -0.00000000D+00 -0.47034005D-08  0.80024766D-11  0.80024766D-11
 -0.00000000D+00  0.00000000D+00  0.00000000D+00  0.31221044D-07  0.20617813D-08
  0.20617813D-08  0.00000000D+00  0.00000000D+00 -0.00000000D+00  0.22784560D-04
 -0.64333263D-04  0.13932147D-03  0.20236898D-02  0.40878761D-02  0.81131287D-02
  0.11021110D-01 -0.20605813D-01 -0.32964409D-02  0.13405611D-03  0.20972108D-05
  0.00000000D+00 -0.00000000D+00 -0.44249266D-05 -0.00000000D+00  0.00000000D+00
  0.36000997D-06  0.00000000D+00 -0.00000000D+00 -0.13244031D-04 -0.00000000D+00
  0.00000000D+00 -0.47034005D-08  0.80024766D-11  0.80024766D-11 -0.00000000D+00
  0.00000000D+00 -0.00000000D+00  0.31221044D-07  0.20617813D-08  0.20617813D-08
  0.00000000D+00  0.00000000D+00  0.00000000D+00
MO    2     MO 0.0        OCC NO =    0.0000000  ORB. ENERGY =   -0.001153
  0.40676239D-06 -0.27036391D-05 -0.21010388D-02 -0.26706175D-02 -0.48797075D-02
 -0.91024211D-02 -0.11669954D-01  0.22044478D-01  0.36413263D-02 -0.17668072D-03
 -0.68086892D-07 -0.00000000D+00  0.00000000D+00  0.31119248D-06  0.00000000D+00
 -0.00000000D+00 -0.38635084D-04 -0.00000000D+00  0.00000000D+00  0.64962031D-04
 -0.00000000D+00 -0.00000000D+00 -0.45526553D-09 -0.21433980D-08 -0.21433980D-08
 -0.00000000D+00  0.00000000D+00 -0.00000000D+00 -0.15452267D-07  0.26263548D-08
  0.26263548D-08  0.00000000D+00 -0.00000000D+00  0.00000000D+00 -0.40676239D-06
  0.27036391D-05  0.21010388D-02  0.26706175D-02  0.48797075D-02  0.91024211D-02
  0.11669954D-01 -0.22044478D-01 -0.36413263D-02  0.17668072D-03 -0.68086892D-07
  0.00000000D+00 -0.00000000D+00  0.31119248D-06 -0.00000000D+00  0.00000000D+00
 -0.38635084D-04  0.00000000D+00 -0.00000000D+00  0.64962031D-04 -0.00000000D+00
 -0.00000000D+00  0.45526553D-09  0.21433980D-08  0.21433980D-08 -0.00000000D+00
  0.00000000D+00 -0.00000000D+00  0.15452267D-07 -0.26263548D-08 -0.26263548D-08
  0.00000000D+00 -0.00000000D+00  0.00000000D+00
MO    3     MO 0.0        OCC NO =    0.0000000  ORB. ENERGY =    0.003526
  0.65727008D-03 -0.25910392D-03 -0.42657091D-02  0.72031760D-02 -0.10477199D-02
  0.52306400D-02  0.25912749D-02 -0.66212157D-02 -0.17703877D-02  0.27132180D-03
 -0.51015714D-04  0.00000000D+00  0.00000000D+00  0.67739235D-04 -0.00000000D+00
  0.00000000D+00 -0.10365938D-03  0.00000000D+00  0.00000000D+00  0.87510134D-04
 -0.00000000D+00 -0.00000000D+00 -0.11624661D-06 -0.31009745D-08 -0.31009745D-08
  0.00000000D+00  0.00000000D+00  0.00000000D+00  0.32025970D-06 -0.86736737D-07
 -0.86736737D-07 -0.00000000D+00  0.00000000D+00 -0.00000000D+00  0.65727008D-03
 -0.25910392D-03 -0.42657091D-02  0.72031760D-02 -0.10477199D-02  0.52306400D-02
  0.25912749D-02 -0.66212157D-02 -0.17703877D-02  0.27132180D-03  0.51015714D-04
 -0.00000000D+00 -0.00000000D+00 -0.67739235D-04  0.00000000D+00 -0.00000000D+00
  0.10365938D-03 -0.00000000D+00 -0.00000000D+00 -0.87510134D-04  0.00000000D+00
  0.00000000D+00 -0.11624661D-06 -0.31009745D-08 -0.31009745D-08  0.00000000D+00
  0.00000000D+00 -0.00000000D+00  0.32025970D-06 -0.86736737D-07 -0.86736737D-07
 -0.00000000D+00  0.00000000D+00  0.00000000D+00
MO    4     MO 0.0        OCC NO =    0.0000000  ORB. ENERGY =    0.004120
  0.00000000D+00 -0.00000000D+00  0.00000000D+00 -0.00000000D+00  0.00000000D+00
 -0.00000000D+00  0.00000000D+00 -0.00000000D+00  0.00000000D+00 -0.00000000D+00
 -0.00000000D+00  0.41050738D-06 -0.10382479D-06  0.00000000D+00 -0.63025740D-05
  0.15940364D-05  0.00000000D+00  0.10400828D-03 -0.26305601D-04  0.00000000D+00
  0.12797883D-03 -0.32368191D-04 -0.00000000D+00  0.00000000D+00  0.00000000D+00
  0.13219694D-07 -0.33435038D-08 -0.00000000D+00  0.00000000D+00  0.00000000D+00
  0.00000000D+00 -0.15216964D-07  0.38486465D-08  0.00000000D+00  0.00000000D+00
 -0.00000000D+00 -0.00000000D+00 -0.00000000D+00 -0.00000000D+00 -0.00000000D+00
  0.00000000D+00  0.00000000D+00  0.00000000D+00 -0.00000000D+00  0.00000000D+00
  0.41050738D-06 -0.10382479D-06 -0.00000000D+00 -0.63025740D-05  0.15940364D-05
  0.00000000D+00  0.10400828D-03 -0.26305601D-04 -0.00000000D+00  0.12797883D-03
 -0.32368191D-04 -0.00000000D+00  0.00000000D+00  0.00000000D+00 -0.13219694D-07
  0.33435038D-08  0.00000000D+00  0.00000000D+00  0.00000000D+00  0.00000000D+00
  0.15216964D-07 -0.38486465D-08 -0.00000000D+00
MO    5     MO 0.0        OCC NO =    0.0000000  ORB. ENERGY =    0.004120
  0.00000000D+00 -0.00000000D+00  0.00000000D+00 -0.00000000D+00 -0.00000000D+00
 -0.00000000D+00 -0.00000000D+00  0.00000000D+00  0.00000000D+00 -0.00000000D+00
 -0.00000000D+00 -0.10382479D-06 -0.41050738D-06  0.00000000D+00  0.15940364D-05
  0.63025740D-05  0.00000000D+00 -0.26305601D-04 -0.10400828D-03  0.00000000D+00
 -0.32368191D-04 -0.12797883D-03 -0.00000000D+00  0.00000000D+00  0.00000000D+00
 -0.33435038D-08 -0.13219694D-07  0.00000000D+00  0.00000000D+00  0.00000000D+00
  0.00000000D+00  0.38486465D-08  0.15216964D-07  0.00000000D+00  0.00000000D+00
 -0.00000000D+00 -0.00000000D+00 -0.00000000D+00 -0.00000000D+00  0.00000000D+00
 -0.00000000D+00  0.00000000D+00 -0.00000000D+00  0.00000000D+00  0.00000000D+00
 -0.10382479D-06 -0.41050738D-06 -0.00000000D+00  0.15940364D-05  0.63025740D-05
  0.00000000D+00 -0.26305601D-04 -0.10400828D-03 -0.00000000D+00 -0.32368191D-04
 -0.12797883D-03 -0.00000000D+00  0.00000000D+00  0.00000000D+00  0.33435038D-08
  0.13219694D-07  0.00000000D+00  0.00000000D+00  0.00000000D+00  0.00000000D+00
 -0.38486465D-08 -0.15216964D-07 -0.00000000D+00
MO    6     MO 0.0        OCC NO =    0.0000000  ORB. ENERGY =    0.005974
  0.10545119D-04  0.47879742D-05 -0.24303518D-01  0.38843725D-02  0.64300078D-02
  0.30100041D-02  0.75054900D-02 -0.12530751D-01 -0.14608065D-02 -0.10489752D-03
 -0.17257708D-05 -0.00000000D+00 -0.00000000D+00 -0.13084675D-05  0.00000000D+00
  0.00000000D+00 -0.36911337D-03 -0.00000000D+00 -0.00000000D+00  0.19380421D-03
 -0.00000000D+00 -0.00000000D+00 -0.26704358D-07 -0.40932042D-07 -0.40932042D-07
 -0.00000000D+00 -0.00000000D+00 -0.00000000D+00 -0.44444076D-06 -0.27586326D-06
 -0.27586326D-06  0.00000000D+00  0.00000000D+00  0.00000000D+00 -0.10545119D-04
 -0.47879742D-05  0.24303518D-01 -0.38843725D-02 -0.64300078D-02 -0.30100041D-02
 -0.75054900D-02  0.12530751D-01  0.14608065D-02  0.10489752D-03 -0.17257708D-05
  0.00000000D+00  0.00000000D+00 -0.13084675D-05 -0.00000000D+00 -0.00000000D+00
 -0.36911337D-03  0.00000000D+00  0.00000000D+00  0.19380421D-03  0.00000000D+00
  0.00000000D+00  0.26704358D-07  0.40932042D-07  0.40932042D-07 -0.00000000D+00
 -0.00000000D+00 -0.00000000D+00  0.44444076D-06  0.27586326D-06  0.27586326D-06
  0.00000000D+00  0.00000000D+00  0.00000000D+00
MO    7     MO 0.0        OCC NO =    0.0000000  ORB. ENERGY =    0.006801
  0.89694266D-03 -0.12995258D-02 -0.20201089D-03  0.66493304D-02 -0.51978968D-02
  0.17334223D-02 -0.26014609D-02  0.29505166D-02 -0.23648397D-03  0.21337176D-03
 -0.89793055D-04  0.00000000D+00  0.00000000D+00  0.10041292D-03 -0.00000000D+00
 -0.00000000D+00 -0.12648462D-03  0.00000000D+00  0.00000000D+00 -0.47473920D-03
  0.00000000D+00  0.00000000D+00 -0.19643641D-06  0.30812168D-08  0.30812168D-08
  0.00000000D+00  0.00000000D+00 -0.00000000D+00  0.69479743D-06  0.89570849D-07
  0.89570849D-07 -0.00000000D+00 -0.00000000D+00  0.00000000D+00  0.89694266D-03
 -0.12995258D-02 -0.20201089D-03  0.66493304D-02 -0.51978968D-02  0.17334223D-02
 -0.26014609D-02  0.29505166D-02 -0.23648397D-03  0.21337176D-03  0.89793055D-04
 -0.00000000D+00 -0.00000000D+00 -0.10041292D-03  0.00000000D+00  0.00000000D+00
  0.12648462D-03 -0.00000000D+00 -0.00000000D+00  0.47473920D-03 -0.00000000D+00
 -0.00000000D+00 -0.19643641D-06  0.30812168D-08  0.30812168D-08  0.00000000D+00
  0.00000000D+00  0.00000000D+00  0.69479743D-06  0.89570849D-07  0.89570849D-07
 -0.00000000D+00 -0.00000000D+00  0.00000000D+00
MO    8     MO 0.0        OCC NO =    0.0000000  ORB. ENERGY =    0.007103
 -0.00000000D+00 -0.00000000D+00  0.00000000D+00 -0.00000000D+00  0.00000000D+00
 -0.00000000D+00  0.00000000D+00 -0.00000000D+00  0.00000000D+00 -0.00000000D+00
 -0.00000000D+00  0.15800307D-03  0.12781547D-03 -0.00000000D+00 -0.13870973D-03
 -0.11220826D-03  0.00000000D+00  0.15328085D-03  0.12399546D-03  0.00000000D+00
  0.43251316D-03  0.34987847D-03 -0.00000000D+00 -0.00000000D+00 -0.00000000D+00
  0.34698942D-06  0.28069464D-06 -0.00000000D+00 -0.00000000D+00 -0.00000000D+00
 -0.00000000D+00 -0.82007175D-06 -0.66339125D-06  0.00000000D+00  0.00000000D+00
  0.00000000D+00 -0.00000000D+00 -0.00000000D+00  0.00000000D+00 -0.00000000D+00
 -0.00000000D+00  0.00000000D+00  0.00000000D+00 -0.00000000D+00  0.00000000D+00
 -0.15800307D-03 -0.12781547D-03 -0.00000000D+00  0.13870973D-03  0.11220826D-03
  0.00000000D+00 -0.15328085D-03 -0.12399546D-03 -0.00000000D+00 -0.43251316D-03
 -0.34987847D-03 -0.00000000D+00  0.00000000D+00  0.00000000D+00  0.34698942D-06
  0.28069464D-06  0.00000000D+00  0.00000000D+00  0.00000000D+00  0.00000000D+00
 -0.82007175D-06 -0.66339125D-06 -0.00000000D+00
MO    9     MO 0.0        OCC NO =    0.0000000  ORB. ENERGY =    0.007103
 -0.00000000D+00 -0.00000000D+00  0.00000000D+00  0.00000000D+00 -0.00000000D+00
  0.00000000D+00  0.00000000D+00 -0.00000000D+00 -0.00000000D+00 -0.00000000D+00
  0.00000000D+00  0.12781547D-03 -0.15800307D-03 -0.00000000D+00 -0.11220826D-03
  0.13870973D-03  0.00000000D+00  0.12399546D-03 -0.15328085D-03 -0.00000000D+00
  0.34987847D-03 -0.43251316D-03  0.00000000D+00 -0.00000000D+00 -0.00000000D+00
  0.28069464D-06 -0.34698942D-06 -0.00000000D+00 -0.00000000D+00 -0.00000000D+00
 -0.00000000D+00 -0.66339125D-06  0.82007175D-06  0.00000000D+00  0.00000000D+00
  0.00000000D+00 -0.00000000D+00  0.00000000D+00 -0.00000000D+00  0.00000000D+00
 -0.00000000D+00  0.00000000D+00 -0.00000000D+00  0.00000000D+00 -0.00000000D+00
 -0.12781547D-03  0.15800307D-03 -0.00000000D+00  0.11220826D-03 -0.13870973D-03
  0.00000000D+00 -0.12399546D-03  0.15328085D-03  0.00000000D+00 -0.34987847D-03
  0.43251316D-03  0.00000000D+00  0.00000000D+00  0.00000000D+00  0.28069464D-06
 -0.34698942D-06  0.00000000D+00  0.00000000D+00  0.00000000D+00  0.00000000D+00
 -0.66339125D-06  0.82007175D-06 -0.00000000D+00
MO   10     MO 0.0        OCC NO =    0.0000000  ORB. ENERGY =    0.010472
  0.00000000D+00  0.00000000D+00 -0.00000000D+00 -0.00000000D+00 -0.00000000D+00
 -0.00000000D+00 -0.00000000D+00  0.00000000D+00 -0.00000000D+00  0.00000000D+00
 -0.00000000D+00  0.58760300D-06  0.10436389D-06 -0.00000000D+00 -0.89847142D-05
 -0.15957715D-05 -0.00000000D+00  0.17458306D-03  0.31007626D-04 -0.00000000D+00
 -0.75087340D-03 -0.13336232D-03 -0.00000000D+00 -0.00000000D+00 -0.00000000D+00
  0.14603466D-07  0.25937148D-08 -0.00000000D+00 -0.00000000D+00  0.00000000D+00
  0.00000000D+00  0.83716392D-08  0.14868756D-08  0.00000000D+00  0.00000000D+00
  0.00000000D+00  0.00000000D+00  0.00000000D+00  0.00000000D+00  0.00000000D+00
  0.00000000D+00 -0.00000000D+00  0.00000000D+00 -0.00000000D+00  0.00000000D+00
  0.58760300D-06  0.10436389D-06  0.00000000D+00 -0.89847142D-05 -0.15957715D-05
 -0.00000000D+00  0.17458306D-03  0.31007626D-04 -0.00000000D+00 -0.75087340D-03
 -0.13336232D-03 -0.00000000D+00  0.00000000D+00  0.00000000D+00 -0.14603466D-07
 -0.25937148D-08  0.00000000D+00 -0.00000000D+00 -0.00000000D+00 -0.00000000D+00
 -0.83716392D-08 -0.14868756D-08 -0.00000000D+00
MO   11     MO 0.0        OCC NO =    0.0000000  ORB. ENERGY =    0.010472
 -0.00000000D+00 -0.00000000D+00 -0.00000000D+00 -0.00000000D+00 -0.00000000D+00
 -0.00000000D+00 -0.00000000D+00  0.00000000D+00  0.00000000D+00 -0.00000000D+00
  0.00000000D+00 -0.10436389D-06  0.58760300D-06  0.00000000D+00  0.15957715D-05
 -0.89847142D-05 -0.00000000D+00 -0.31007626D-04  0.17458306D-03 -0.00000000D+00
  0.13336232D-03 -0.75087340D-03  0.00000000D+00 -0.00000000D+00 -0.00000000D+00
 -0.25937148D-08  0.14603466D-07  0.00000000D+00  0.00000000D+00  0.00000000D+00
  0.00000000D+00 -0.14868756D-08  0.83716392D-08 -0.00000000D+00 -0.00000000D+00
 -0.00000000D+00  0.00000000D+00  0.00000000D+00  0.00000000D+00  0.00000000D+00
  0.00000000D+00 -0.00000000D+00 -0.00000000D+00  0.00000000D+00 -0.00000000D+00
 -0.10436389D-06  0.58760300D-06 -0.00000000D+00  0.15957715D-05 -0.89847142D-05
 -0.00000000D+00 -0.31007626D-04  0.17458306D-03 -0.00000000D+00  0.13336232D-03
 -0.75087340D-03  0.00000000D+00  0.00000000D+00  0.00000000D+00  0.25937148D-08
 -0.14603466D-07 -0.00000000D+00  0.00000000D+00 -0.00000000D+00 -0.00000000D+00
  0.14868756D-08 -0.83716392D-08  0.00000000D+00
MO   12     MO 0.0        OCC NO =    0.0000000  ORB. ENERGY =    0.010596
  0.52209168D-05 -0.66045334D-04 -0.46605651D-01 -0.97288780D-02 -0.46818374D-03
 -0.20342742D-02 -0.16677060D-02  0.35389752D-02  0.75027912D-03 -0.79019559D-04
 -0.87847748D-06 -0.00000000D+00 -0.00000000D+00  0.69354402D-05  0.00000000D+00
  0.00000000D+00 -0.86088866D-03 -0.00000000D+00 -0.00000000D+00 -0.18222582D-02
  0.00000000D+00  0.00000000D+00  0.56939053D-10 -0.32849026D-07 -0.32849026D-07
 -0.00000000D+00 -0.00000000D+00  0.00000000D+00 -0.18958643D-06  0.15329780D-06
  0.15329780D-06  0.00000000D+00  0.00000000D+00 -0.00000000D+00 -0.52209168D-05
  0.66045334D-04  0.46605651D-01  0.97288780D-02  0.46818374D-03  0.20342742D-02
  0.16677060D-02 -0.35389752D-02 -0.75027912D-03  0.79019559D-04 -0.87847748D-06
  0.00000000D+00  0.00000000D+00  0.69354402D-05 -0.00000000D+00 -0.00000000D+00
 -0.86088866D-03  0.00000000D+00 -0.00000000D+00 -0.18222582D-02 -0.00000000D+00
  0.00000000D+00 -0.56939053D-10  0.32849026D-07  0.32849026D-07 -0.00000000D+00
 -0.00000000D+00 -0.00000000D+00  0.18958643D-06 -0.15329780D-06 -0.15329780D-06
  0.00000000D+00  0.00000000D+00  0.00000000D+00
MO   13     MO 0.0        OCC NO =    0.0000000  ORB. ENERGY =    0.013197
  0.47903123D-03 -0.98778019D-03 -0.14038451D-03  0.12964722D-01 -0.24703281D-01
  0.39571764D-02 -0.14197413D-01  0.18579267D-01  0.55203493D-04  0.84794429D-03
 -0.74829851D-04  0.00000000D+00  0.00000000D+00  0.31010219D-04 -0.00000000D+00
 -0.00000000D+00 -0.13651612D-03  0.00000000D+00  0.00000000D+00  0.31862006D-03
 -0.00000000D+00 -0.00000000D+00 -0.15393233D-06  0.11697814D-07  0.11697814D-07
  0.00000000D+00  0.00000000D+00 -0.00000000D+00  0.41033317D-06  0.26779300D-06
  0.26779300D-06 -0.00000000D+00 -0.00000000D+00  0.00000000D+00  0.47903123D-03
 -0.98778019D-03 -0.14038451D-03  0.12964722D-01 -0.24703281D-01  0.39571764D-02
 -0.14197413D-01  0.18579267D-01  0.55203493D-04  0.84794429D-03  0.74829851D-04
 -0.00000000D+00 -0.00000000D+00 -0.31010219D-04  0.00000000D+00  0.00000000D+00
  0.13651612D-03 -0.00000000D+00 -0.00000000D+00 -0.31862006D-03  0.00000000D+00
  0.00000000D+00 -0.15393233D-06  0.11697814D-07  0.11697814D-07  0.00000000D+00
  0.00000000D+00  0.00000000D+00  0.41033317D-06  0.26779300D-06  0.26779300D-06
 -0.00000000D+00 -0.00000000D+00 -0.00000000D+00
MO   14     MO 0.0        OCC NO =    0.0000000  ORB. ENERGY =    0.015669
 -0.00000000D+00 -0.00000000D+00  0.00000000D+00 -0.00000000D+00  0.00000000D+00
 -0.00000000D+00  0.00000000D+00 -0.00000000D+00  0.00000000D+00 -0.00000000D+00
 -0.00000000D+00  0.40450389D-03 -0.16291488D-03 -0.00000000D+00 -0.33750546D-03
  0.13593111D-03 -0.00000000D+00  0.48689735D-03 -0.19609904D-03 -0.00000000D+00
 -0.10014730D-02  0.40334557D-03 -0.00000000D+00 -0.00000000D+00 -0.00000000D+00
  0.88795333D-06 -0.35762527D-06 -0.00000000D+00 -0.00000000D+00 -0.00000000D+00
 -0.00000000D+00 -0.19683326D-05  0.79275056D-06  0.00000000D+00  0.00000000D+00
  0.00000000D+00 -0.00000000D+00  0.00000000D+00 -0.00000000D+00  0.00000000D+00
 -0.00000000D+00  0.00000000D+00 -0.00000000D+00  0.00000000D+00  0.00000000D+00
 -0.40450389D-03  0.16291488D-03 -0.00000000D+00  0.33750546D-03 -0.13593111D-03
  0.00000000D+00 -0.48689735D-03  0.19609904D-03 -0.00000000D+00  0.10014730D-02
 -0.40334557D-03 -0.00000000D+00  0.00000000D+00  0.00000000D+00  0.88795333D-06
 -0.35762527D-06  0.00000000D+00  0.00000000D+00  0.00000000D+00  0.00000000D+00
 -0.19683326D-05  0.79275056D-06 -0.00000000D+00
MO   15     MO 0.0        OCC NO =    0.0000000  ORB. ENERGY =    0.015669
 -0.00000000D+00 -0.00000000D+00  0.00000000D+00 -0.00000000D+00  0.00000000D+00
 -0.00000000D+00  0.00000000D+00 -0.00000000D+00  0.00000000D+00 -0.00000000D+00
 -0.00000000D+00  0.16291488D-03  0.40450389D-03 -0.00000000D+00 -0.13593111D-03
 -0.33750546D-03 -0.00000000D+00  0.19609904D-03  0.48689735D-03  0.00000000D+00
 -0.40334557D-03 -0.10014730D-02 -0.00000000D+00  0.00000000D+00  0.00000000D+00
  0.35762527D-06  0.88795333D-06 -0.00000000D+00 -0.00000000D+00  0.00000000D+00
  0.00000000D+00 -0.79275056D-06 -0.19683326D-05  0.00000000D+00  0.00000000D+00
  0.00000000D+00  0.00000000D+00 -0.00000000D+00  0.00000000D+00 -0.00000000D+00
  0.00000000D+00 -0.00000000D+00  0.00000000D+00 -0.00000000D+00  0.00000000D+00
 -0.16291488D-03 -0.40450389D-03 -0.00000000D+00  0.13593111D-03  0.33750546D-03
  0.00000000D+00 -0.19609904D-03 -0.48689735D-03 -0.00000000D+00  0.40334557D-03
  0.10014730D-02 -0.00000000D+00  0.00000000D+00  0.00000000D+00  0.35762527D-06
  0.88795333D-06  0.00000000D+00  0.00000000D+00  0.00000000D+00  0.00000000D+00
 -0.79275056D-06 -0.19683326D-05 -0.00000000D+00
MO   16     MO 0.0        OCC NO =    0.0000000  ORB. ENERGY =    0.015814
 -0.11708639D-04 -0.89239781D-04  0.27306696D-02 -0.30006381D-01  0.25175974D-01
 -0.48787563D-02  0.12072056D-01 -0.15045176D-01  0.32503297D-03 -0.80767653D-03
  0.18803726D-05 -0.00000000D+00 -0.00000000D+00  0.12726951D-04  0.00000000D+00
 -0.00000000D+00 -0.18475647D-03 -0.00000000D+00 -0.00000000D+00 -0.61753259D-03
  0.00000000D+00  0.00000000D+00  0.42718719D-07  0.31311360D-07  0.31311360D-07
 -0.00000000D+00 -0.00000000D+00 -0.00000000D+00  0.59090976D-06  0.66257540D-06
  0.66257540D-06  0.00000000D+00 -0.00000000D+00  0.00000000D+00  0.11708639D-04
  0.89239781D-04 -0.27306696D-02  0.30006381D-01 -0.25175974D-01  0.48787563D-02
 -0.12072056D-01  0.15045176D-01 -0.32503297D-03  0.80767653D-03  0.18803726D-05
  0.00000000D+00  0.00000000D+00  0.12726951D-04 -0.00000000D+00  0.00000000D+00
 -0.18475647D-03  0.00000000D+00  0.00000000D+00 -0.61753259D-03 -0.00000000D+00
 -0.00000000D+00 -0.42718719D-07 -0.31311360D-07 -0.31311360D-07 -0.00000000D+00
 -0.00000000D+00 -0.00000000D+00 -0.59090976D-06 -0.66257540D-06 -0.66257540D-06
  0.00000000D+00 -0.00000000D+00  0.00000000D+00
MO   17     MO 0.0        OCC NO =    0.0000000  ORB. ENERGY =    0.016172
 -0.27157239D-02  0.48170094D-02 -0.67651998D-02  0.89790859D-02 -0.73983072D-02
  0.13178142D-02 -0.31758123D-02  0.40392783D-02 -0.21260489D-04  0.19525127D-03
  0.28273717D-03 -0.00000000D+00 -0.00000000D+00 -0.30880223D-03  0.00000000D+00
  0.00000000D+00  0.39812848D-03  0.00000000D+00  0.00000000D+00 -0.69341966D-03
 -0.00000000D+00 -0.00000000D+00  0.61563839D-06 -0.13189533D-07 -0.13189533D-07
 -0.00000000D+00 -0.00000000D+00  0.00000000D+00 -0.22840650D-05 -0.41729596D-06
 -0.41729596D-06  0.00000000D+00  0.00000000D+00 -0.00000000D+00 -0.27157239D-02
  0.48170094D-02 -0.67651998D-02  0.89790859D-02 -0.73983072D-02  0.13178142D-02
 -0.31758123D-02  0.40392783D-02 -0.21260489D-04  0.19525127D-03 -0.28273717D-03
  0.00000000D+00  0.00000000D+00  0.30880223D-03 -0.00000000D+00 -0.00000000D+00
 -0.39812848D-03 -0.00000000D+00 -0.00000000D+00  0.69341966D-03  0.00000000D+00
  0.00000000D+00  0.61563839D-06 -0.13189533D-07 -0.13189533D-07 -0.00000000D+00
 -0.00000000D+00 -0.00000000D+00 -0.22840650D-05 -0.41729596D-06 -0.41729596D-06
  0.00000000D+00  0.00000000D+00  0.00000000D+00
MO   18     MO 0.0        OCC NO =    0.0000000  ORB. ENERGY =    0.022434
  0.39897274D-04  0.37783711D-03  0.90264059D-01 -0.36978713D-01  0.17036864D-01
 -0.50694286D-02  0.58944382D-02 -0.59753946D-02  0.86320598D-03 -0.55858490D-03
 -0.64115449D-05  0.00000000D+00  0.00000000D+00 -0.44044677D-04 -0.00000000D+00
 -0.00000000D+00  0.22494318D-02  0.00000000D+00  0.00000000D+00 -0.22995065D-02
  0.00000000D+00 -0.00000000D+00 -0.17095884D-06 -0.96851561D-07 -0.96851561D-07
  0.00000000D+00  0.00000000D+00 -0.00000000D+00 -0.18370633D-05 -0.24695521D-05
 -0.24695521D-05 -0.00000000D+00 -0.00000000D+00  0.00000000D+00 -0.39897274D-04
 -0.37783711D-03 -0.90264059D-01  0.36978713D-01 -0.17036864D-01  0.50694286D-02
 -0.58944382D-02  0.59753946D-02 -0.86320598D-03  0.55858490D-03 -0.64115449D-05
 -0.00000000D+00 -0.00000000D+00 -0.44044677D-04  0.00000000D+00  0.00000000D+00
  0.22494318D-02 -0.00000000D+00 -0.00000000D+00 -0.22995065D-02 -0.00000000D+00
  0.00000000D+00  0.17095884D-06  0.96851561D-07  0.96851561D-07  0.00000000D+00
  0.00000000D+00  0.00000000D+00  0.18370633D-05  0.24695521D-05  0.24695521D-05
 -0.00000000D+00 -0.00000000D+00 -0.00000000D+00
MO   19     MO 0.0        OCC NO =    0.0000000  ORB. ENERGY =    0.028224
  0.32522692D-02  0.18605689D-02 -0.17227969D-01  0.19234214D-01 -0.11804674D-01
 -0.54449382D-02 -0.33917553D-02  0.78377261D-02  0.19146078D-02 -0.24505301D-03
 -0.87377675D-04  0.00000000D+00 -0.00000000D+00  0.34208487D-03 -0.00000000D+00
  0.00000000D+00  0.99122786D-05  0.00000000D+00 -0.00000000D+00 -0.75283921D-04
 -0.00000000D+00  0.00000000D+00 -0.27619219D-06 -0.78907549D-07 -0.78907549D-07
  0.00000000D+00 -0.00000000D+00 -0.00000000D+00  0.51217446D-06 -0.17429604D-05
 -0.17429604D-05 -0.00000000D+00  0.00000000D+00  0.00000000D+00  0.32522692D-02
  0.18605689D-02 -0.17227969D-01  0.19234214D-01 -0.11804674D-01 -0.54449382D-02
 -0.33917553D-02  0.78377261D-02  0.19146078D-02 -0.24505301D-03  0.87377675D-04
 -0.00000000D+00  0.00000000D+00 -0.34208487D-03  0.00000000D+00 -0.00000000D+00
 -0.99122786D-05 -0.00000000D+00  0.00000000D+00  0.75283921D-04  0.00000000D+00
 -0.00000000D+00 -0.27619219D-06 -0.78907549D-07 -0.78907549D-07  0.00000000D+00
 -0.00000000D+00  0.00000000D+00  0.51217446D-06 -0.17429604D-05 -0.17429604D-05
 -0.00000000D+00  0.00000000D+00 -0.00000000D+00
MO   20     MO 0.0        OCC NO =    0.0000000  ORB. ENERGY =    0.036701
 -0.20059368D-03 -0.39052508D-03  0.64691321D-02 -0.61234756D-02 -0.53879725D-03
  0.11400733D-01 -0.21177972D-02 -0.27479757D-02 -0.29033037D-02  0.79611732D-03
  0.32027529D-04 -0.00000000D+00  0.00000000D+00  0.30122033D-04  0.00000000D+00
 -0.00000000D+00 -0.48786302D-03 -0.00000000D+00  0.00000000D+00  0.57243133D-03
  0.00000000D+00 -0.00000000D+00  0.76838470D-06  0.77511280D-06  0.77511280D-06
 -0.00000000D+00  0.00000000D+00  0.00000000D+00  0.66533322D-05  0.63910543D-05
  0.63910543D-05  0.00000000D+00 -0.00000000D+00 -0.00000000D+00  0.20059368D-03
  0.39052508D-03 -0.64691321D-02  0.61234756D-02  0.53879725D-03 -0.11400733D-01
  0.21177972D-02  0.27479757D-02  0.29033037D-02 -0.79611732D-03  0.32027530D-04
  0.00000000D+00 -0.00000000D+00  0.30122033D-04 -0.00000000D+00  0.00000000D+00
 -0.48786302D-03  0.00000000D+00 -0.00000000D+00  0.57243133D-03 -0.00000000D+00
  0.00000000D+00 -0.76838470D-06 -0.77511280D-06 -0.77511280D-06 -0.00000000D+00
  0.00000000D+00 -0.00000000D+00 -0.66533322D-05 -0.63910543D-05 -0.63910543D-05
  0.00000000D+00 -0.00000000D+00  0.00000000D+00
MO   21     MO 0.0        OCC NO =    0.0000000  ORB. ENERGY =    0.038053
  0.00000000D+00 -0.00000000D+00 -0.00000000D+00  0.00000000D+00 -0.00000000D+00
 -0.00000000D+00  0.00000000D+00  0.00000000D+00  0.00000000D+00 -0.00000000D+00
 -0.00000000D+00 -0.00000000D+00 -0.00000000D+00  0.00000000D+00  0.00000000D+00
  0.00000000D+00  0.00000000D+00 -0.00000000D+00 -0.00000000D+00 -0.00000000D+00
  0.00000000D+00 -0.00000000D+00 -0.00000000D+00 -0.44313047D-07  0.44313047D-07
 -0.00000000D+00 -0.00000000D+00  0.14950103D-07  0.00000000D+00  0.61079455D-06
 -0.61079455D-06  0.00000000D+00  0.00000000D+00 -0.20606667D-06  0.00000000D+00
 -0.00000000D+00  0.00000000D+00 -0.00000000D+00 -0.00000000D+00  0.00000000D+00
 -0.00000000D+00 -0.00000000D+00 -0.00000000D+00  0.00000000D+00  0.00000000D+00
  0.00000000D+00  0.00000000D+00 -0.00000000D+00 -0.00000000D+00 -0.00000000D+00
  0.00000000D+00  0.00000000D+00  0.00000000D+00 -0.00000000D+00 -0.00000000D+00
 -0.00000000D+00 -0.00000000D+00 -0.44313047D-07  0.44313047D-07 -0.00000000D+00
 -0.00000000D+00  0.14950103D-07  0.00000000D+00  0.61079455D-06 -0.61079455D-06
  0.00000000D+00  0.00000000D+00 -0.20606667D-06
MO   22     MO 0.0        OCC NO =    0.0000000  ORB. ENERGY =    0.038053
  0.00000000D+00 -0.00000000D+00  0.00000000D+00  0.00000000D+00 -0.00000000D+00
  0.00000000D+00 -0.00000000D+00  0.00000000D+00 -0.00000000D+00  0.00000000D+00
 -0.00000000D+00  0.00000000D+00 -0.00000000D+00  0.00000000D+00 -0.00000000D+00
  0.00000000D+00 -0.00000000D+00  0.00000000D+00 -0.00000000D+00  0.00000000D+00
 -0.00000000D+00  0.00000000D+00 -0.00000000D+00 -0.74750521D-08  0.74750521D-08
  0.00000000D+00 -0.00000000D+00 -0.88626094D-07  0.00000000D+00  0.10303334D-06
 -0.10303334D-06 -0.00000000D+00  0.00000000D+00  0.12215891D-05  0.00000000D+00
 -0.00000000D+00  0.00000000D+00 -0.00000000D+00  0.00000000D+00  0.00000000D+00
 -0.00000000D+00 -0.00000000D+00 -0.00000000D+00  0.00000000D+00  0.00000000D+00
 -0.00000000D+00  0.00000000D+00 -0.00000000D+00  0.00000000D+00 -0.00000000D+00
  0.00000000D+00 -0.00000000D+00  0.00000000D+00 -0.00000000D+00  0.00000000D+00
 -0.00000000D+00 -0.00000000D+00 -0.74750521D-08  0.74750521D-08  0.00000000D+00
 -0.00000000D+00 -0.88626094D-07  0.00000000D+00  0.10303334D-06 -0.10303334D-06
 -0.00000000D+00  0.00000000D+00  0.12215891D-05
MO   23     MO 0.0        OCC NO =    0.0000000  ORB. ENERGY =    0.042441
  0.15895974D-03 -0.46922225D-03 -0.41911326D-02  0.92446869D-03 -0.28726676D-02
  0.64988867D-02 -0.17950690D-02 -0.60236901D-03 -0.15014675D-02  0.44834598D-03
 -0.23505788D-04  0.14254109D-12  0.00000000D+00  0.92808903D-04 -0.00000000D+00
 -0.00000000D+00 -0.17915773D-03  0.00000000D+00  0.00000000D+00  0.22953966D-03
 -0.00000000D+00 -0.00000000D+00 -0.94499719D-06 -0.89634339D-06 -0.89634339D-06
  0.00000000D+00  0.00000000D+00  0.00000000D+00 -0.15149835D-05 -0.19289786D-05
 -0.19289786D-05 -0.00000000D+00 -0.00000000D+00 -0.00000000D+00 -0.15895974D-03
  0.46922225D-03  0.41911326D-02 -0.92446869D-03  0.28726676D-02 -0.64988867D-02
  0.17950690D-02  0.60236901D-03  0.15014675D-02 -0.44834598D-03 -0.23505788D-04
 -0.14254109D-12 -0.00000000D+00  0.92808903D-04  0.00000000D+00  0.00000000D+00
 -0.17915773D-03 -0.00000000D+00  0.00000000D+00  0.22953966D-03  0.00000000D+00
 -0.00000000D+00  0.94499719D-06  0.89634339D-06  0.89634339D-06  0.00000000D+00
  0.00000000D+00 -0.00000000D+00  0.15149835D-05  0.19289786D-05  0.19289786D-05
 -0.00000000D+00 -0.00000000D+00  0.00000000D+00
MO   24     MO 0.0        OCC NO =    0.0000000  ORB. ENERGY =    0.042457
  0.00000000D+00 -0.00000000D+00  0.00000000D+00 -0.00000000D+00  0.00000000D+00
 -0.00000000D+00  0.00000000D+00 -0.00000000D+00  0.00000000D+00 -0.00000000D+00
 -0.00000000D+00 -0.14153216D-05 -0.15170934D-07  0.00000000D+00  0.49372909D-04
  0.52923353D-06 -0.00000000D+00 -0.21055602D-03 -0.22569722D-05  0.00000000D+00
  0.32039103D-03  0.34343048D-05 -0.00000000D+00  0.00000000D+00  0.00000000D+00
 -0.49405990D-06 -0.52958834D-08  0.00000000D+00  0.00000000D+00  0.00000000D+00
  0.00000000D+00  0.24730450D-05  0.26508839D-07 -0.00000000D+00  0.00000000D+00
 -0.00000000D+00  0.00000000D+00 -0.00000000D+00 -0.00000000D+00  0.00000000D+00
 -0.00000000D+00 -0.00000000D+00 -0.00000000D+00  0.00000000D+00  0.00000000D+00
 -0.14153212D-05 -0.15170934D-07 -0.00000000D+00  0.49372909D-04  0.52923353D-06