 Molden2AIM, Version 3.1.0 (02/25/2015)           Time: Thu Oct 17 19:55:31 2024
GAUSSIAN             68 MOL ORBITALS     68 PRIMITIVES        2 NUCLEI
  Be   1    (CENTRE  1)   0.00000000  0.00000000  0.00000000  CHARGE =  4.0
  Be   2    (CENTRE  2)  47.20000000  0.00000000  0.00000000  CHARGE =  4.0
CENTRE ASSIGNMENTS    1  1  1  1  1  1  1  1  1  1  1  1  1  1  1  1  1  1  1  1
CENTRE ASSIGNMENTS    1  1  1  1  1  1  1  1  1  1  1  1  1  1  2  2  2  2  2  2
CENTRE ASSIGNMENTS    2  2  2  2  2  2  2  2  2  2  2  2  2  2  2  2  2  2  2  2
CENTRE ASSIGNMENTS    2  2  2  2  2  2  2  2
TYPE ASSIGNMENTS      1  1  1  1  1  1  1  1  1  1  2  3  4  2  3  4  2  3  4  2
TYPE ASSIGNMENTS      3  4  5  6  7  8  9 10  5  6  7  8  9 10  1  1  1  1  1  1
TYPE ASSIGNMENTS      1  1  1  1  2  3  4  2  3  4  2  3  4  2  3  4  5  6  7  8
TYPE ASSIGNMENTS      9 10  5  6  7  8  9 10
EXPONENTS  0.1000000D-03 0.3000000D-03 0.9000000D-03 0.2700000D-02 0.8100000D-02
EXPONENTS  0.2430000D-01 0.7290000D-01 0.2187000D+00 0.6561000D+00 0.1968300D+01
EXPONENTS  0.1000000D-03 0.1000000D-03 0.1000000D-03 0.3000000D-03 0.3000000D-03
EXPONENTS  0.3000000D-03 0.9000000D-03 0.9000000D-03 0.9000000D-03 0.2700000D-02
EXPONENTS  0.2700000D-02 0.2700000D-02 0.1000000D-03 0.1000000D-03 0.1000000D-03
EXPONENTS  0.1000000D-03 0.1000000D-03 0.1000000D-03 0.3000000D-03 0.3000000D-03
EXPONENTS  0.3000000D-03 0.3000000D-03 0.3000000D-03 0.3000000D-03 0.1000000D-03
EXPONENTS  0.3000000D-03 0.9000000D-03 0.2700000D-02 0.8100000D-02 0.2430000D-01
EXPONENTS  0.7290000D-01 0.2187000D+00 0.6561000D+00 0.1968300D+01 0.1000000D-03
EXPONENTS  0.1000000D-03 0.1000000D-03 0.3000000D-03 0.3000000D-03 0.3000000D-03
EXPONENTS  0.9000000D-03 0.9000000D-03 0.9000000D-03 0.2700000D-02 0.2700000D-02
EXPONENTS  0.2700000D-02 0.1000000D-03 0.1000000D-03 0.1000000D-03 0.1000000D-03
EXPONENTS  0.1000000D-03 0.1000000D-03 0.3000000D-03 0.3000000D-03 0.3000000D-03
EXPONENTS  0.3000000D-03 0.3000000D-03 0.3000000D-03
MO    1     MO 0.0        OCC NO =    1.0000000  ORB. ENERGY =   -0.001154
 -0.11053100D-04 -0.88016120D-04  0.32365335D-03  0.19102282D-02  0.48085848D-02
  0.81908858D-02  0.11241955D-01 -0.20847172D-01 -0.33031484D-02  0.12182182D-03
 -0.19627053D-06 -0.00000000D+00 -0.00000000D+00  0.91765627D-06 -0.00000000D+00
 -0.00000000D+00 -0.53311455D-06  0.00000000D+00  0.00000000D+00  0.13447968D-03
 -0.00000000D+00 -0.00000000D+00 -0.65526161D-09  0.55190753D-09  0.55190753D-09
 -0.00000000D+00 -0.00000000D+00 -0.00000000D+00  0.31169471D-07  0.15089891D-07
  0.15089891D-07 -0.00000000D+00 -0.00000000D+00  0.00000000D+00 -0.11053100D-04
 -0.88016120D-04  0.32365335D-03  0.19102282D-02  0.48085848D-02  0.81908858D-02
  0.11241955D-01 -0.20847172D-01 -0.33031484D-02  0.12182182D-03  0.19627053D-06
  0.00000000D+00  0.00000000D+00 -0.91765627D-06  0.00000000D+00  0.00000000D+00
  0.53311455D-06 -0.00000000D+00 -0.00000000D+00 -0.13447968D-03  0.00000000D+00
  0.00000000D+00 -0.65526161D-09  0.55190753D-09  0.55190753D-09 -0.00000000D+00
 -0.00000000D+00  0.00000000D+00  0.31169471D-07  0.15089891D-07  0.15089891D-07
 -0.00000000D+00 -0.00000000D+00 -0.00000000D+00
MO    2     MO 0.0        OCC NO =    0.0000000  ORB. ENERGY =   -0.000839
  0.14161337D-04 -0.21850728D-02  0.27149418D-04 -0.24754615D-02 -0.47810676D-02
 -0.91653235D-02 -0.11713903D-01  0.22074890D-01  0.36457270D-02 -0.17703603D-03
 -0.23263163D-06  0.00000000D+00  0.00000000D+00 -0.36570771D-04 -0.00000000D+00
 -0.00000000D+00  0.17894723D-04  0.00000000D+00  0.00000000D+00 -0.15350358D-03
 -0.00000000D+00 -0.00000000D+00 -0.26038070D-08 -0.23699659D-08 -0.23699659D-08
  0.00000000D+00  0.00000000D+00  0.00000000D+00 -0.21755035D-06 -0.41592960D-07
 -0.41592960D-07 -0.00000000D+00 -0.00000000D+00  0.00000000D+00 -0.14161337D-04
  0.21850728D-02 -0.27149418D-04  0.24754615D-02  0.47810676D-02  0.91653235D-02
  0.11713903D-01 -0.22074890D-01 -0.36457270D-02  0.17703603D-03 -0.23263163D-06
 -0.00000000D+00 -0.00000000D+00 -0.36570771D-04  0.00000000D+00  0.00000000D+00
  0.17894723D-04  0.00000000D+00 -0.00000000D+00 -0.15350358D-03 -0.00000000D+00
  0.00000000D+00  0.26038070D-08  0.23699659D-08  0.23699659D-08  0.00000000D+00
  0.00000000D+00  0.00000000D+00  0.21755035D-06  0.41592960D-07  0.41592960D-07
 -0.00000000D+00 -0.00000000D+00 -0.00000000D+00
MO    3     MO 0.0        OCC NO =    0.0000000  ORB. ENERGY =    0.004906
  0.43456330D-03  0.25083977D-03 -0.34546233D-02  0.45068203D-02  0.20269362D-02
  0.60092843D-02  0.52144875D-02 -0.10832101D-01 -0.22045184D-02  0.21768278D-03
 -0.12380755D-04  0.00000000D+00  0.00000000D+00  0.16262017D-04 -0.00000000D+00
 -0.00000000D+00 -0.10258562D-03  0.00000000D+00  0.00000000D+00  0.42197104D-04
 -0.00000000D+00 -0.00000000D+00 -0.63618829D-07 -0.48387299D-08 -0.48387299D-08
  0.00000000D+00  0.00000000D+00 -0.00000000D+00 -0.12049676D-07 -0.10878613D-06
 -0.10878613D-06 -0.00000000D+00 -0.00000000D+00 -0.00000000D+00  0.43456330D-03
  0.25083977D-03 -0.34546233D-02  0.45068203D-02  0.20269362D-02  0.60092843D-02
  0.52144875D-02 -0.10832101D-01 -0.22045184D-02  0.21768278D-03  0.12380755D-04
 -0.00000000D+00 -0.00000000D+00 -0.16262017D-04  0.00000000D+00  0.00000000D+00
  0.10258562D-03 -0.00000000D+00 -0.00000000D+00 -0.42197104D-04 -0.00000000D+00
  0.00000000D+00 -0.63618829D-07 -0.48387299D-08 -0.48387299D-08  0.00000000D+00
  0.00000000D+00  0.00000000D+00 -0.12049676D-07 -0.10878613D-06 -0.10878613D-06
 -0.00000000D+00 -0.00000000D+00  0.00000000D+00
MO    4     MO 0.0        OCC NO =    0.0000000  ORB. ENERGY =    0.010427
 -0.00000000D+00 -0.00000000D+00  0.00000000D+00 -0.00000000D+00  0.00000000D+00
 -0.00000000D+00  0.00000000D+00 -0.00000000D+00 -0.00000000D+00  0.00000000D+00
  0.00000000D+00  0.45328210D-06  0.37147278D-06 -0.00000000D+00 -0.48928364D-05
 -0.40097665D-05  0.00000000D+00  0.64344809D-04  0.52731717D-04 -0.00000000D+00
  0.24944285D-03  0.20442287D-03  0.00000000D+00 -0.00000000D+00 -0.00000000D+00
 -0.81394072D-08 -0.66703901D-08 -0.00000000D+00 -0.00000000D+00 -0.00000000D+00
 -0.00000000D+00  0.10469628D-06  0.85800451D-07  0.00000000D+00 -0.00000000D+00
  0.00000000D+00  0.00000000D+00 -0.00000000D+00  0.00000000D+00 -0.00000000D+00
  0.00000000D+00 -0.00000000D+00  0.00000000D+00 -0.00000000D+00 -0.00000000D+00
  0.45328210D-06  0.37147278D-06 -0.00000000D+00 -0.48928364D-05 -0.40097665D-05
  0.00000000D+00  0.64344809D-04  0.52731717D-04  0.00000000D+00  0.24944285D-03
  0.20442287D-03  0.00000000D+00  0.00000000D+00  0.00000000D+00  0.81394072D-08
  0.66703901D-08  0.00000000D+00  0.00000000D+00  0.00000000D+00  0.00000000D+00
 -0.10469628D-06 -0.85800451D-07  0.00000000D+00
MO    5     MO 0.0        OCC NO =    0.0000000  ORB. ENERGY =    0.010427
  0.00000000D+00  0.00000000D+00 -0.00000000D+00  0.00000000D+00  0.00000000D+00
  0.00000000D+00  0.00000000D+00 -0.00000000D+00 -0.00000000D+00  0.00000000D+00
 -0.00000000D+00 -0.37147278D-06  0.45328210D-06  0.00000000D+00  0.40097665D-05
 -0.48928364D-05 -0.00000000D+00 -0.52731717D-04  0.64344809D-04  0.00000000D+00
 -0.20442287D-03  0.24944285D-03 -0.00000000D+00  0.00000000D+00  0.00000000D+00
  0.66703901D-08 -0.81394072D-08  0.00000000D+00  0.00000000D+00  0.00000000D+00
  0.00000000D+00 -0.85800451D-07  0.10469628D-06 -0.00000000D+00  0.00000000D+00
 -0.00000000D+00  0.00000000D+00  0.00000000D+00 -0.00000000D+00 -0.00000000D+00
 -0.00000000D+00  0.00000000D+00 -0.00000000D+00  0.00000000D+00  0.00000000D+00
 -0.37147278D-06  0.45328210D-06  0.00000000D+00  0.40097665D-05 -0.48928364D-05
 -0.00000000D+00 -0.52731717D-04  0.64344809D-04 -0.00000000D+00 -0.20442287D-03
  0.24944285D-03 -0.00000000D+00 -0.00000000D+00 -0.00000000D+00 -0.66703901D-08
  0.81394072D-08 -0.00000000D+00 -0.00000000D+00 -0.00000000D+00 -0.00000000D+00
  0.85800451D-07 -0.10469628D-06  0.00000000D+00
MO    6     MO 0.0        OCC NO =    0.0000000  ORB. ENERGY =    0.010901
 -0.38801546D-04  0.11593041D-01 -0.44278061D-02 -0.25719820D-02  0.11271163D-01
  0.27487002D-02  0.91368838D-02 -0.14675441D-01 -0.14919387D-02 -0.19847269D-03
 -0.13799999D-05 -0.00000000D+00 -0.00000000D+00  0.18104927D-03  0.00000000D+00
  0.00000000D+00 -0.90794855D-04 -0.00000000D+00 -0.00000000D+00 -0.40040686D-03
  0.00000000D+00 -0.00000000D+00 -0.14039598D-07 -0.10686850D-07 -0.10686850D-07
 -0.00000000D+00 -0.00000000D+00 -0.00000000D+00  0.74117022D-06 -0.13351756D-06
 -0.13351756D-06  0.00000000D+00  0.00000000D+00  0.00000000D+00  0.38801546D-04
 -0.11593041D-01  0.44278061D-02  0.25719820D-02 -0.11271163D-01 -0.27487002D-02
 -0.91368838D-02  0.14675441D-01  0.14919387D-02  0.19847269D-03 -0.13799999D-05
  0.00000000D+00  0.00000000D+00  0.18104927D-03 -0.00000000D+00 -0.00000000D+00
 -0.90794855D-04  0.00000000D+00 -0.00000000D+00 -0.40040686D-03  0.00000000D+00
 -0.00000000D+00  0.14039598D-07  0.10686850D-07  0.10686850D-07 -0.00000000D+00
 -0.00000000D+00  0.00000000D+00 -0.74117022D-06  0.13351756D-06  0.13351756D-06
  0.00000000D+00  0.00000000D+00 -0.00000000D+00
MO    7     MO 0.0        OCC NO =    0.0000000  ORB. ENERGY =    0.011742
  0.10148272D-03 -0.46418527D-03 -0.18325342D-02  0.11960656D-01 -0.15469303D-01
  0.20638070D-02 -0.95398067D-02  0.12696566D-01  0.11334771D-03  0.55471209D-03
 -0.14116999D-04  0.00000000D+00 -0.00000000D+00  0.14735556D-04 -0.00000000D+00
 -0.00000000D+00 -0.14772759D-03  0.00000000D+00  0.00000000D+00  0.71542696D-03
  0.00000000D+00 -0.00000000D+00 -0.59460526D-07  0.77362913D-08  0.77362913D-08
  0.00000000D+00 -0.00000000D+00  0.00000000D+00  0.22818932D-06  0.17468254D-06
  0.17468254D-06 -0.00000000D+00 -0.00000000D+00 -0.00000000D+00  0.10148272D-03
 -0.46418527D-03 -0.18325342D-02  0.11960656D-01 -0.15469303D-01  0.20638070D-02
 -0.95398067D-02  0.12696566D-01  0.11334771D-03  0.55471209D-03  0.14116999D-04
 -0.00000000D+00  0.00000000D+00 -0.14735556D-04  0.00000000D+00  0.00000000D+00
  0.14772759D-03  0.00000000D+00 -0.00000000D+00 -0.71542696D-03  0.00000000D+00
  0.00000000D+00 -0.59460526D-07  0.77362913D-08  0.77362913D-08  0.00000000D+00
 -0.00000000D+00 -0.00000000D+00  0.22818932D-06  0.17468254D-06  0.17468254D-06
 -0.00000000D+00 -0.00000000D+00  0.00000000D+00
MO    8     MO 0.0        OCC NO =    0.0000000  ORB. ENERGY =    0.012620
  0.00000000D+00 -0.00000000D+00  0.00000000D+00 -0.00000000D+00  0.00000000D+00
  0.00000000D+00  0.00000000D+00 -0.00000000D+00 -0.00000000D+00  0.00000000D+00
 -0.00000000D+00 -0.14072263D-05 -0.10931943D-05 -0.00000000D+00  0.43923932D-05
  0.34122009D-05  0.00000000D+00 -0.26027703D-05 -0.20219450D-05 -0.00000000D+00
  0.50682083D-03  0.39372035D-03 -0.00000000D+00 -0.00000000D+00 -0.00000000D+00
 -0.75907751D-08 -0.58968424D-08 -0.00000000D+00 -0.00000000D+00 -0.00000000D+00
 -0.00000000D+00  0.71796140D-07  0.55774348D-07  0.00000000D+00 -0.00000000D+00
  0.00000000D+00 -0.00000000D+00  0.00000000D+00 -0.00000000D+00 -0.00000000D+00
 -0.00000000D+00  0.00000000D+00  0.00000000D+00 -0.00000000D+00 -0.00000000D+00
  0.14072263D-05  0.10931943D-05 -0.00000000D+00 -0.43923932D-05 -0.34122009D-05
  0.00000000D+00  0.26027703D-05  0.20219450D-05 -0.00000000D+00 -0.50682083D-03
 -0.39372035D-03  0.00000000D+00  0.00000000D+00  0.00000000D+00 -0.75907751D-08
 -0.58968424D-08  0.00000000D+00  0.00000000D+00  0.00000000D+00  0.00000000D+00
  0.71796140D-07  0.55774348D-07 -0.00000000D+00
MO    9     MO 0.0        OCC NO =    0.0000000  ORB. ENERGY =    0.012620
  0.00000000D+00  0.00000000D+00 -0.00000000D+00 -0.00000000D+00  0.00000000D+00
  0.00000000D+00  0.00000000D+00 -0.00000000D+00  0.00000000D+00  0.00000000D+00
 -0.00000000D+00 -0.10931943D-05  0.14072263D-05  0.00000000D+00  0.34122009D-05
 -0.43923932D-05  0.00000000D+00 -0.20219450D-05  0.26027703D-05 -0.00000000D+00
  0.39372035D-03 -0.50682083D-03 -0.00000000D+00 -0.00000000D+00 -0.00000000D+00
 -0.58968424D-08  0.75907751D-08 -0.00000000D+00  0.00000000D+00 -0.00000000D+00
 -0.00000000D+00  0.55774348D-07 -0.71796140D-07  0.00000000D+00  0.00000000D+00
 -0.00000000D+00 -0.00000000D+00 -0.00000000D+00  0.00000000D+00 -0.00000000D+00
  0.00000000D+00 -0.00000000D+00  0.00000000D+00 -0.00000000D+00  0.00000000D+00
  0.10931943D-05 -0.14072263D-05  0.00000000D+00 -0.34122009D-05  0.43923932D-05
 -0.00000000D+00  0.20219450D-05 -0.26027703D-05  0.00000000D+00 -0.39372035D-03
  0.50682083D-03 -0.00000000D+00 -0.00000000D+00 -0.00000000D+00 -0.58968424D-08
  0.75907751D-08 -0.00000000D+00 -0.00000000D+00 -0.00000000D+00 -0.00000000D+00
  0.55774348D-07 -0.71796140D-07 -0.00000000D+00
MO   10     MO 0.0        OCC NO =    0.0000000  ORB. ENERGY =    0.017140
  0.00000000D+00  0.00000000D+00 -0.00000000D+00  0.00000000D+00 -0.00000000D+00
  0.00000000D+00 -0.00000000D+00  0.00000000D+00 -0.00000000D+00 -0.00000000D+00
 -0.00000000D+00  0.60836510D-06 -0.92348355D-06  0.00000000D+00 -0.71038893D-05
  0.10783532D-04 -0.00000000D+00  0.11721792D-03 -0.17793397D-03  0.00000000D+00
 -0.46546550D-03  0.70656542D-03 -0.00000000D+00  0.00000000D+00 -0.00000000D+00
 -0.87565930D-08  0.13292296D-07 -0.00000000D+00  0.00000000D+00 -0.00000000D+00
 -0.00000000D+00  0.12314144D-06 -0.18692573D-06  0.00000000D+00  0.00000000D+00
 -0.00000000D+00  0.00000000D+00 -0.00000000D+00  0.00000000D+00 -0.00000000D+00
  0.00000000D+00 -0.00000000D+00 -0.00000000D+00  0.00000000D+00  0.00000000D+00
  0.60836510D-06 -0.92348355D-06  0.00000000D+00 -0.71038893D-05  0.10783532D-04
 -0.00000000D+00  0.11721792D-03 -0.17793397D-03  0.00000000D+00 -0.46546550D-03
  0.70656542D-03 -0.00000000D+00 -0.00000000D+00 -0.00000000D+00  0.87565930D-08
 -0.13292296D-07  0.00000000D+00 -0.00000000D+00 -0.00000000D+00 -0.00000000D+00
 -0.12314144D-06  0.18692573D-06 -0.00000000D+00
MO   11     MO 0.0        OCC NO =    0.0000000  ORB. ENERGY =    0.017140
  0.00000000D+00 -0.00000000D+00  0.00000000D+00 -0.00000000D+00  0.00000000D+00
 -0.00000000D+00  0.00000000D+00 -0.00000000D+00 -0.00000000D+00  0.00000000D+00
 -0.00000000D+00  0.92348355D-06  0.60836510D-06 -0.00000000D+00 -0.10783532D-04
 -0.71038893D-05  0.00000000D+00  0.17793397D-03  0.11721792D-03 -0.00000000D+00
 -0.70656542D-03 -0.46546550D-03 -0.00000000D+00 -0.00000000D+00 -0.00000000D+00
 -0.13292296D-07 -0.87565930D-08 -0.00000000D+00 -0.00000000D+00 -0.00000000D+00
 -0.00000000D+00  0.18692573D-06  0.12314144D-06 -0.00000000D+00 -0.00000000D+00
  0.00000000D+00 -0.00000000D+00  0.00000000D+00 -0.00000000D+00  0.00000000D+00
 -0.00000000D+00  0.00000000D+00 -0.00000000D+00  0.00000000D+00 -0.00000000D+00
  0.92348355D-06  0.60836510D-06 -0.00000000D+00 -0.10783532D-04 -0.71038893D-05
  0.00000000D+00  0.17793397D-03  0.11721792D-03 -0.00000000D+00 -0.70656542D-03
 -0.46546550D-03  0.00000000D+00  0.00000000D+00  0.00000000D+00  0.13292296D-07
  0.87565930D-08  0.00000000D+00  0.00000000D+00  0.00000000D+00  0.00000000D+00
 -0.18692573D-06 -0.12314144D-06  0.00000000D+00
MO   12     MO 0.0        OCC NO =    0.0000000  ORB. ENERGY =    0.017275
  0.16678716D-03 -0.33784235D-01  0.10090577D-01 -0.12802010D-01  0.98189288D-02
 -0.21329144D-02  0.44491205D-02 -0.53321240D-02  0.24507753D-03 -0.32883364D-03
  0.19933274D-06  0.00000000D+00  0.00000000D+00 -0.54689193D-03 -0.00000000D+00
 -0.00000000D+00  0.36123951D-03 -0.00000000D+00 -0.00000000D+00 -0.65245462D-03
  0.00000000D+00  0.00000000D+00 -0.19168236D-08 -0.21165365D-08 -0.21165365D-08
  0.00000000D+00  0.00000000D+00  0.00000000D+00 -0.27464009D-05 -0.14626465D-06
 -0.14626465D-06 -0.00000000D+00 -0.00000000D+00 -0.00000000D+00 -0.16678716D-03
  0.33784235D-01 -0.10090577D-01  0.12802010D-01 -0.98189288D-02  0.21329144D-02
 -0.44491205D-02  0.53321240D-02 -0.24507753D-03  0.32883364D-03  0.19933274D-06
 -0.00000000D+00 -0.00000000D+00 -0.54689193D-03  0.00000000D+00  0.00000000D+00
  0.36123951D-03 -0.00000000D+00 -0.00000000D+00 -0.65245462D-03  0.00000000D+00
  0.00000000D+00  0.19168236D-08  0.21165365D-08  0.21165365D-08  0.00000000D+00
  0.00000000D+00 -0.00000000D+00  0.27464009D-05  0.14626465D-06  0.14626465D-06
 -0.00000000D+00 -0.00000000D+00  0.00000000D+00
MO   13     MO 0.0        OCC NO =    0.0000000  ORB. ENERGY =    0.020076
  0.16972732D-03  0.56048577D-04 -0.67142360D-03  0.93092555D-02 -0.13426759D-01
 -0.10129811D-02 -0.72855245D-02  0.11030972D-01  0.86850552D-03  0.23733108D-03
 -0.53119795D-05  0.00000000D+00 -0.00000000D+00  0.40645986D-05  0.00000000D+00
  0.00000000D+00 -0.37008293D-04 -0.00000000D+00 -0.00000000D+00 -0.27976944D-03
  0.00000000D+00  0.00000000D+00 -0.26428101D-07 -0.17314877D-08 -0.17314877D-08
  0.00000000D+00 -0.00000000D+00 -0.00000000D+00 -0.28792958D-07 -0.23712359D-07
 -0.23712359D-07  0.00000000D+00  0.00000000D+00 -0.00000000D+00  0.16972732D-03
  0.56048577D-04 -0.67142360D-03  0.93092555D-02 -0.13426759D-01 -0.10129811D-02
 -0.72855245D-02  0.11030972D-01  0.86850552D-03  0.23733108D-03  0.53119795D-05
 -0.00000000D+00  0.00000000D+00 -0.40645986D-05 -0.00000000D+00 -0.00000000D+00
  0.37008293D-04  0.00000000D+00  0.00000000D+00  0.27976944D-03 -0.00000000D+00
 -0.00000000D+00 -0.26428101D-07 -0.17314877D-08 -0.17314877D-08  0.00000000D+00
 -0.00000000D+00 -0.00000000D+00 -0.28792958D-07 -0.23712359D-07 -0.23712359D-07
  0.00000000D+00  0.00000000D+00  0.00000000D+00
MO   14     MO 0.0        OCC NO =    0.0000000  ORB. ENERGY =    0.022191
 -0.60452091D-04  0.13923953D-01 -0.77284877D-02  0.16430124D-01 -0.17008383D-01
 -0.45968412D-03 -0.81657007D-02  0.12015425D-01  0.79576160D-03  0.30845105D-03
 -0.72263873D-06 -0.00000000D+00 -0.00000000D+00  0.22388665D-03  0.00000000D+00
  0.00000000D+00 -0.22434577D-03 -0.00000000D+00  0.00000000D+00 -0.26890406D-03
  0.00000000D+00 -0.00000000D+00 -0.44863263D-08 -0.60249662D-08 -0.60249662D-08
 -0.00000000D+00 -0.00000000D+00 -0.00000000D+00  0.10341324D-05  0.27239978D-08
  0.27239978D-08  0.00000000D+00  0.00000000D+00  0.00000000D+00  0.60452091D-04
 -0.13923953D-01  0.77284877D-02 -0.16430124D-01  0.17008383D-01  0.45968412D-03
  0.81657007D-02 -0.12015425D-01 -0.79576160D-03 -0.30845105D-03 -0.72263873D-06
  0.00000000D+00  0.00000000D+00  0.22388665D-03 -0.00000000D+00 -0.00000000D+00
 -0.22434577D-03  0.00000000D+00 -0.00000000D+00 -0.26890406D-03 -0.00000000D+00
  0.00000000D+00  0.44863263D-08  0.60249662D-08  0.60249662D-08 -0.00000000D+00
 -0.00000000D+00  0.00000000D+00 -0.10341324D-05 -0.27239978D-08 -0.27239978D-08
  0.00000000D+00  0.00000000D+00 -0.00000000D+00
MO   15     MO 0.0        OCC NO =    0.0000000  ORB. ENERGY =    0.023596
  0.00000000D+00  0.00000000D+00  0.00000000D+00 -0.00000000D+00  0.00000000D+00
  0.00000000D+00  0.00000000D+00 -0.00000000D+00 -0.00000000D+00  0.00000000D+00
 -0.00000000D+00 -0.45562749D-04 -0.19288096D-04  0.00000000D+00  0.43985616D-04
  0.18620447D-04 -0.00000000D+00 -0.31655602D-03 -0.13400778D-03  0.00000000D+00
  0.64793307D-03  0.27428975D-03 -0.00000000D+00  0.00000000D+00  0.00000000D+00
 -0.20687783D-06 -0.87577667D-07  0.00000000D+00  0.00000000D+00  0.00000000D+00
  0.00000000D+00  0.21111739D-06  0.89372399D-07 -0.00000000D+00 -0.00000000D+00
 -0.00000000D+00 -0.00000000D+00  0.00000000D+00 -0.00000000D+00  0.00000000D+00
 -0.00000000D+00  0.00000000D+00 -0.00000000D+00  0.00000000D+00  0.00000000D+00
  0.45562749D-04  0.19288096D-04  0.00000000D+00 -0.43985616D-04 -0.18620447D-04
 -0.00000000D+00  0.31655602D-03  0.13400778D-03  0.00000000D+00 -0.64793307D-03
 -0.27428975D-03 -0.00000000D+00 -0.00000000D+00 -0.00000000D+00 -0.20687783D-06
 -0.87577667D-07 -0.00000000D+00 -0.00000000D+00 -0.00000000D+00 -0.00000000D+00
  0.21111739D-06  0.89372399D-07  0.00000000D+00
MO   16     MO 0.0        OCC NO =    0.0000000  ORB. ENERGY =    0.023596
 -0.00000000D+00 -0.00000000D+00 -0.00000000D+00  0.00000000D+00 -0.00000000D+00
  0.00000000D+00 -0.00000000D+00  0.00000000D+00 -0.00000000D+00  0.00000000D+00
  0.00000000D+00  0.19288096D-04 -0.45562749D-04 -0.00000000D+00 -0.18620447D-04
  0.43985616D-04  0.00000000D+00  0.13400778D-03 -0.31655602D-03 -0.00000000D+00
 -0.27428975D-03  0.64793307D-03  0.00000000D+00 -0.00000000D+00 -0.00000000D+00
  0.87577667D-07 -0.20687783D-06 -0.00000000D+00 -0.00000000D+00 -0.00000000D+00
 -0.00000000D+00 -0.89372399D-07  0.21111739D-06  0.00000000D+00  0.00000000D+00
  0.00000000D+00 -0.00000000D+00 -0.00000000D+00  0.00000000D+00  0.00000000D+00
 -0.00000000D+00  0.00000000D+00 -0.00000000D+00  0.00000000D+00 -0.00000000D+00
 -0.19288096D-04  0.45562749D-04 -0.00000000D+00  0.18620447D-04 -0.43985616D-04
  0.00000000D+00 -0.13400778D-03  0.31655602D-03 -0.00000000D+00  0.27428975D-03
 -0.64793307D-03  0.00000000D+00  0.00000000D+00  0.00000000D+00  0.87577667D-07
 -0.20687783D-06  0.00000000D+00  0.00000000D+00  0.00000000D+00  0.00000000D+00
 -0.89372399D-07  0.21111739D-06 -0.00000000D+00
MO   17     MO 0.0        OCC NO =    0.0000000  ORB. ENERGY =    0.029588
 -0.60714053D-03  0.14783913D-02 -0.58955304D-02  0.10821659D-01 -0.89905809D-02
 -0.11639888D-02 -0.34303634D-02  0.55066594D-02  0.58967202D-03  0.71676614D-04
  0.33616282D-04  0.00000000D+00 -0.00000000D+00 -0.37178986D-04 -0.00000000D+00
  0.00000000D+00  0.23725205D-03  0.00000000D+00 -0.00000000D+00 -0.57880243D-03
  0.00000000D+00 -0.00000000D+00  0.15707908D-06 -0.61318689D-08 -0.61318689D-08
  0.00000000D+00 -0.00000000D+00 -0.00000000D+00 -0.47523511D-06 -0.23602236D-06
 -0.23602236D-06 -0.00000000D+00  0.00000000D+00  0.00000000D+00 -0.60714053D-03
  0.14783913D-02 -0.58955304D-02  0.10821659D-01 -0.89905809D-02 -0.11639888D-02
 -0.34303634D-02  0.55066594D-02  0.58967202D-03  0.71676614D-04 -0.33616282D-04
 -0.00000000D+00  0.00000000D+00  0.37178986D-04  0.00000000D+00 -0.00000000D+00
 -0.23725205D-03 -0.00000000D+00  0.00000000D+00  0.57880243D-03 -0.00000000D+00
  0.00000000D+00  0.15707908D-06 -0.61318689D-08 -0.61318689D-08  0.00000000D+00
 -0.00000000D+00  0.00000000D+00 -0.47523511D-06 -0.23602236D-06 -0.23602236D-06
 -0.00000000D+00  0.00000000D+00 -0.00000000D+00
MO   18     MO 0.0        OCC NO =    0.0000000  ORB. ENERGY =    0.030799
 -0.39506842D-02 -0.39886532D-02  0.17717014D-01 -0.17737524D-01  0.10051589D-01
  0.37179438D-02  0.29588604D-02 -0.61703614D-02 -0.12867635D-02  0.12031770D-03
  0.53162078D-04 -0.00000000D+00  0.00000000D+00 -0.95305926D-04  0.00000000D+00
  0.00000000D+00  0.12976884D-03 -0.00000000D+00 -0.00000000D+00 -0.33814962D-03
  0.00000000D+00  0.00000000D+00  0.35539456D-06  0.92429975D-07  0.92429975D-07
 -0.00000000D+00  0.00000000D+00  0.00000000D+00  0.93703007D-06  0.19318410D-05
  0.19318410D-05  0.00000000D+00  0.00000000D+00  0.00000000D+00 -0.39506842D-02
 -0.39886532D-02  0.17717014D-01 -0.17737524D-01  0.10051589D-01  0.37179438D-02
  0.29588604D-02 -0.61703614D-02 -0.12867635D-02  0.12031770D-03 -0.53162078D-04
  0.00000000D+00 -0.00000000D+00  0.95305926D-04 -0.00000000D+00 -0.00000000D+00
 -0.12976884D-03  0.00000000D+00  0.00000000D+00  0.33814962D-03 -0.00000000D+00
  0.00000000D+00  0.35539456D-06  0.92429975D-07  0.92429975D-07 -0.00000000D+00
  0.00000000D+00 -0.00000000D+00  0.93703007D-06  0.19318410D-05  0.19318410D-05
  0.00000000D+00  0.00000000D+00  0.00000000D+00
MO   19     MO 0.0        OCC NO =    0.0000000  ORB. ENERGY =    0.030902
 -0.22941497D-03  0.36319848D-01  0.51379274D-03 -0.63053171D-02  0.59819565D-02
  0.26812714D-04  0.23287856D-02 -0.33335259D-02 -0.17909832D-03 -0.10085890D-03
  0.33830039D-05 -0.00000000D+00 -0.00000000D+00  0.61748552D-03  0.00000000D+00
  0.00000000D+00 -0.49287894D-03 -0.00000000D+00 -0.00000000D+00  0.59009017D-03
  0.00000000D+00  0.00000000D+00  0.42198565D-07  0.33856059D-07  0.33856059D-07
 -0.00000000D+00 -0.00000000D+00 -0.00000000D+00  0.36372123D-05  0.72289665D-06
  0.72289665D-06  0.00000000D+00  0.00000000D+00  0.00000000D+00  0.22941497D-03
 -0.36319848D-01 -0.51379274D-03  0.63053171D-02 -0.59819565D-02 -0.26812714D-04
 -0.23287856D-02  0.33335259D-02  0.17909832D-03  0.10085890D-03  0.33830039D-05
  0.00000000D+00  0.00000000D+00  0.61748552D-03 -0.00000000D+00 -0.00000000D+00
 -0.49287894D-03  0.00000000D+00  0.00000000D+00  0.59009017D-03 -0.00000000D+00
 -0.00000000D+00 -0.42198565D-07 -0.33856059D-07 -0.33856059D-07 -0.00000000D+00
 -0.00000000D+00  0.00000000D+00 -0.36372123D-05 -0.72289665D-06 -0.72289665D-06
  0.00000000D+00  0.00000000D+00 -0.00000000D+00
MO   20     MO 0.0        OCC NO =    0.0000000  ORB. ENERGY =    0.039244
  0.49728614D-03  0.27923946D-01 -0.17072726D-01  0.11838531D-01 -0.27533374D-02
 -0.78558519D-02  0.17792787D-03  0.35560151D-02  0.19847072D-02 -0.46246339D-03
 -0.44987940D-04 -0.00000000D+00 -0.00000000D+00  0.42790930D-03  0.00000000D+00
  0.00000000D+00  0.10454143D-03 -0.00000000D+00 -0.00000000D+00 -0.12497385D-03
  0.00000000D+00  0.00000000D+00 -0.61821985D-06 -0.54726560D-06 -0.54726560D-06
 -0.00000000D+00 -0.00000000D+00 -0.00000000D+00 -0.18573317D-05 -0.39327162D-05
 -0.39327162D-05  0.00000000D+00  0.00000000D+00 -0.00000000D+00 -0.49728614D-03
 -0.27923946D-01  0.17072726D-01 -0.11838531D-01  0.27533374D-02  0.78558519D-02
 -0.17792787D-03 -0.35560151D-02 -0.19847072D-02  0.46246339D-03 -0.44987940D-04
  0.00000000D+00  0.00000000D+00  0.42790930D-03 -0.00000000D+00 -0.00000000D+00
  0.10454143D-03  0.00000000D+00  0.00000000D+00 -0.12497385D-03 -0.00000000D+00
 -0.00000000D+00  0.61821985D-06  0.54726560D-06  0.54726560D-06 -0.00000000D+00
 -0.00000000D+00  0.00000000D+00  0.18573317D-05  0.39327162D-05  0.39327162D-05
  0.00000000D+00  0.00000000D+00 -0.00000000D+00
MO   21     MO 0.0        OCC NO =    0.0000000  ORB. ENERGY =    0.041501
  0.00000000D+00  0.00000000D+00 -0.00000000D+00  0.00000000D+00  0.00000000D+00
 -0.00000000D+00  0.00000000D+00  0.00000000D+00  0.00000000D+00 -0.00000000D+00
  0.00000000D+00 -0.00000000D+00  0.00000000D+00  0.00000000D+00  0.00000000D+00
 -0.00000000D+00 -0.00000000D+00 -0.00000000D+00 -0.00000000D+00  0.00000000D+00
  0.00000000D+00  0.00000000D+00  0.00000000D+00 -0.50963614D-07  0.50963614D-07
 -0.00000000D+00  0.00000000D+00  0.34252710D-08  0.00000000D+00  0.66688647D-06
 -0.66688647D-06  0.00000000D+00 -0.00000000D+00 -0.44821537D-07  0.00000000D+00
 -0.00000000D+00  0.00000000D+00 -0.00000000D+00 -0.00000000D+00  0.00000000D+00
 -0.00000000D+00 -0.00000000D+00 -0.00000000D+00  0.00000000D+00  0.00000000D+00
  0.00000000D+00 -0.00000000D+00  0.00000000D+00 -0.00000000D+00  0.00000000D+00
 -0.00000000D+00  0.00000000D+00 -0.00000000D+00 -0.00000000D+00  0.00000000D+00
  0.00000000D+00 -0.00000000D+00 -0.50963614D-07  0.50963614D-07 -0.00000000D+00
  0.00000000D+00  0.34252710D-08 -0.00000000D+00  0.66688647D-06 -0.66688647D-06
  0.00000000D+00 -0.00000000D+00 -0.44821537D-07
MO   22     MO 0.0        OCC NO =    0.0000000  ORB. ENERGY =    0.041501
  0.00000000D+00 -0.00000000D+00  0.00000000D+00 -0.00000000D+00  0.00000000D+00
  0.00000000D+00  0.00000000D+00 -0.00000000D+00  0.00000000D+00 -0.00000000D+00
  0.00000000D+00 -0.00000000D+00  0.00000000D+00 -0.00000000D+00  0.00000000D+00
 -0.00000000D+00  0.00000000D+00  0.00000000D+00  0.00000000D+00 -0.00000000D+00
 -0.00000000D+00  0.00000000D+00 -0.00000000D+00 -0.17126353D-08  0.17126353D-08
 -0.00000000D+00  0.00000000D+00 -0.10192723D-06 -0.00000000D+00  0.22410764D-07
 -0.22410764D-07  0.00000000D+00 -0.00000000D+00  0.13337729D-05 -0.00000000D+00
  0.00000000D+00 -0.00000000D+00  0.00000000D+00  0.00000000D+00 -0.00000000D+00
  0.00000000D+00 -0.00000000D+00  0.00000000D+00 -0.00000000D+00 -0.00000000D+00
  0.00000000D+00 -0.00000000D+00 -0.00000000D+00 -0.00000000D+00  0.00000000D+00
  0.00000000D+00  0.00000000D+00 -0.00000000D+00 -0.00000000D+00 -0.00000000D+00
  0.00000000D+00  0.00000000D+00 -0.17126353D-08  0.17126353D-08 -0.00000000D+00
  0.00000000D+00 -0.10192723D-06  0.00000000D+00  0.22410764D-07 -0.22410764D-07
  0.00000000D+00 -0.00000000D+00  0.13337729D-05
MO   23     MO 0.0        OCC NO =    0.0000000  ORB. ENERGY =    0.042472
  0.72663595D-03 -0.98277467D-01  0.96760208D-02 -0.74450009D-02 -0.12302860D-02
  0.11241954D-01 -0.17041793D-02 -0.29190877D-02 -0.26383269D-02  0.69862196D-03
 -0.16417588D-04  0.00000000D+00  0.00000000D+00 -0.14211622D-02 -0.00000000D+00
 -0.00000000D+00 -0.40073858D-04  0.00000000D+00  0.00000000D+00  0.97127988D-04
 -0.00000000D+00 -0.00000000D+00 -0.31991910D-06 -0.37253097D-06 -0.37253097D-06
  0.00000000D+00  0.00000000D+00  0.00000000D+00 -0.72819562D-05  0.94380783D-07
  0.94380783D-07 -0.00000000D+00 -0.00000000D+00 -0.00000000D+00 -0.72663595D-03
  0.98277467D-01 -0.96760208D-02  0.74450009D-02  0.12302860D-02 -0.11241954D-01
  0.17041793D-02  0.29190877D-02  0.26383269D-02 -0.69862196D-03 -0.16417588D-04
 -0.00000000D+00 -0.00000000D+00 -0.14211622D-02  0.00000000D+00  0.00000000D+00
 -0.40073858D-04 -0.00000000D+00 -0.00000000D+00  0.97127988D-04  0.00000000D+00
  0.00000000D+00  0.31991910D-06  0.37253097D-06  0.37253097D-06  0.00000000D+00
  0.00000000D+00 -0.00000000D+00  0.72819562D-05 -0.94380783D-07 -0.94380783D-07
 -0.00000000D+00 -0.00000000D+00  0.00000000D+00
MO   24     MO 0.0        OCC NO =    0.0000000  ORB. ENERGY =    0.042946
 -0.81319255D-02  0.33652102D-02  0.17076408D-02  0.16195437D-03  0.67773456D-03
 -0.21396643D-02  0.43376879D-03  0.40010161D-03  0.49403619D-03 -0.13781049D-03
  0.15868979D-03  0.00000000D+00 -0.00000000D+00 -0.55747316D-04 -0.00000000D+00
  0.00000000D+00  0.50572770D-04  0.00000000D+00 -0.00000000D+00 -0.46663983D-04
 -0.00000000D+00  0.00000000D+00  0.10224983D-05  0.18522294D-06  0.18522294D-06
  0.00000000D+00 -0.00000000D+00 -0.00000000D+00  0.70534359D-06  0.13567253D-05
  0.13567253D-05 -0.00000000D+00  0.00000000D+00  0.00000000D+00 -0.81319255D-02
  0.33652102D-02  0.17076408D-02  0.16195437D-03  0.67773456D-03 -0.21396643D-02
  0.43376879D-03  0.40010161D-03  0.49403619D-03 -0.13781049D-03 -0.15868979D-03
 -0.00000000D+00  0.00000000D+00  0.55747316D-04  0.00000000D+00 -0.00000000D+00