 Molden2AIM, Version 3.1.0 (02/25/2015)           Time: Thu Oct 17 19:53:33 2024
GAUSSIAN             68 MOL ORBITALS     68 PRIMITIVES        2 NUCLEI
  Be   1    (CENTRE  1)   0.00000000  0.00000000  0.00000000  CHARGE =  4.0
  Be   2    (CENTRE  2)  21.20000000  0.00000000  0.00000000  CHARGE =  4.0
CENTRE ASSIGNMENTS    1  1  1  1  1  1  1  1  1  1  1  1  1  1  1  1  1  1  1  1
CENTRE ASSIGNMENTS    1  1  1  1  1  1  1  1  1  1  1  1  1  1  2  2  2  2  2  2
CENTRE ASSIGNMENTS    2  2  2  2  2  2  2  2  2  2  2  2  2  2  2  2  2  2  2  2
CENTRE ASSIGNMENTS    2  2  2  2  2  2  2  2
TYPE ASSIGNMENTS      1  1  1  1  1  1  1  1  1  1  2  3  4  2  3  4  2  3  4  2
TYPE ASSIGNMENTS      3  4  5  6  7  8  9 10  5  6  7  8  9 10  1  1  1  1  1  1
TYPE ASSIGNMENTS      1  1  1  1  2  3  4  2  3  4  2  3  4  2  3  4  5  6  7  8
TYPE ASSIGNMENTS      9 10  5  6  7  8  9 10
EXPONENTS  0.1000000D-03 0.3000000D-03 0.9000000D-03 0.2700000D-02 0.8100000D-02
EXPONENTS  0.2430000D-01 0.7290000D-01 0.2187000D+00 0.6561000D+00 0.1968300D+01
EXPONENTS  0.1000000D-03 0.1000000D-03 0.1000000D-03 0.3000000D-03 0.3000000D-03
EXPONENTS  0.3000000D-03 0.9000000D-03 0.9000000D-03 0.9000000D-03 0.2700000D-02
EXPONENTS  0.2700000D-02 0.2700000D-02 0.1000000D-03 0.1000000D-03 0.1000000D-03
EXPONENTS  0.1000000D-03 0.1000000D-03 0.1000000D-03 0.3000000D-03 0.3000000D-03
EXPONENTS  0.3000000D-03 0.3000000D-03 0.3000000D-03 0.3000000D-03 0.1000000D-03
EXPONENTS  0.3000000D-03 0.9000000D-03 0.2700000D-02 0.8100000D-02 0.2430000D-01
EXPONENTS  0.7290000D-01 0.2187000D+00 0.6561000D+00 0.1968300D+01 0.1000000D-03
EXPONENTS  0.1000000D-03 0.1000000D-03 0.3000000D-03 0.3000000D-03 0.3000000D-03
EXPONENTS  0.9000000D-03 0.9000000D-03 0.9000000D-03 0.2700000D-02 0.2700000D-02
EXPONENTS  0.2700000D-02 0.1000000D-03 0.1000000D-03 0.1000000D-03 0.1000000D-03
EXPONENTS  0.1000000D-03 0.1000000D-03 0.3000000D-03 0.3000000D-03 0.3000000D-03
EXPONENTS  0.3000000D-03 0.3000000D-03 0.3000000D-03
MO    1     MO 0.0        OCC NO =    1.0000000  ORB. ENERGY =   -0.004053
 -0.37241826D-04  0.90391911D-04 -0.14565367D-03 -0.19224182D-02 -0.41590688D-02
 -0.82904779D-02 -0.11213580D-01  0.20937812D-01  0.33372213D-02 -0.13149793D-03
  0.37054692D-05  0.00000000D+00  0.00000000D+00 -0.66920829D-05  0.00000000D+00
  0.00000000D+00  0.18852123D-05  0.00000000D+00  0.00000000D+00 -0.18307172D-04
 -0.00000000D+00 -0.00000000D+00  0.79168853D-08 -0.68440761D-10 -0.68440761D-10
  0.00000000D+00  0.00000000D+00 -0.00000000D+00 -0.45517241D-07 -0.36466708D-08
 -0.36466708D-08  0.00000000D+00  0.00000000D+00  0.00000000D+00 -0.37241826D-04
  0.90391911D-04 -0.14565367D-03 -0.19224182D-02 -0.41590688D-02 -0.82904779D-02
 -0.11213580D-01  0.20937812D-01  0.33372213D-02 -0.13149793D-03 -0.37054692D-05
 -0.00000000D+00 -0.00000000D+00  0.66920829D-05 -0.00000000D+00 -0.00000000D+00
 -0.18852123D-05 -0.00000000D+00 -0.00000000D+00  0.18307172D-04  0.00000000D+00
 -0.00000000D+00  0.79168853D-08 -0.68440761D-10 -0.68440761D-10  0.00000000D+00
  0.00000000D+00 -0.00000000D+00 -0.45517241D-07 -0.36466708D-08 -0.36466708D-08
  0.00000000D+00  0.00000000D+00 -0.00000000D+00
MO    2     MO 0.0        OCC NO =    0.0000000  ORB. ENERGY =   -0.001128
  0.57467580D-06 -0.18076790D-05 -0.23348711D-02 -0.25777526D-02 -0.50194520D-02
 -0.92989116D-02 -0.11823530D-01  0.22320122D-01  0.36851930D-02 -0.17726105D-03
 -0.98567879D-07 -0.00000000D+00 -0.00000000D+00  0.19604802D-06  0.00000000D+00
  0.00000000D+00 -0.39760494D-04 -0.00000000D+00 -0.00000000D+00  0.63827752D-04
  0.00000000D+00  0.00000000D+00 -0.11469959D-08 -0.28093252D-08 -0.28093252D-08
 -0.00000000D+00 -0.00000000D+00  0.00000000D+00 -0.24490925D-07 -0.62497714D-08
 -0.62497714D-08  0.00000000D+00  0.00000000D+00 -0.00000000D+00 -0.57467580D-06
  0.18076790D-05  0.23348711D-02  0.25777526D-02  0.50194520D-02  0.92989116D-02
  0.11823530D-01 -0.22320122D-01 -0.36851930D-02  0.17726105D-03 -0.98567879D-07
  0.00000000D+00  0.00000000D+00  0.19604802D-06 -0.00000000D+00 -0.00000000D+00
 -0.39760494D-04  0.00000000D+00  0.00000000D+00  0.63827752D-04 -0.00000000D+00
 -0.00000000D+00  0.11469959D-08  0.28093252D-08  0.28093252D-08 -0.00000000D+00
 -0.00000000D+00 -0.00000000D+00  0.24490925D-07  0.62497714D-08  0.62497714D-08
  0.00000000D+00  0.00000000D+00  0.00000000D+00
MO    3     MO 0.0        OCC NO =    0.0000000  ORB. ENERGY =    0.003438
  0.65242424D-03 -0.25707233D-03 -0.42719922D-02  0.70646261D-02 -0.11450570D-02
  0.51766742D-02  0.25047997D-02 -0.64447132D-02 -0.17359303D-02  0.26792273D-03
 -0.52352633D-04  0.00000000D+00 -0.00000000D+00  0.70421179D-04 -0.00000000D+00
 -0.00000000D+00 -0.10023068D-03  0.00000000D+00  0.00000000D+00  0.87832347D-04
 -0.00000000D+00 -0.00000000D+00 -0.11497504D-06 -0.31454045D-08 -0.31454045D-08
  0.00000000D+00 -0.00000000D+00 -0.00000000D+00  0.32222530D-06 -0.88842145D-07
 -0.88842145D-07 -0.00000000D+00 -0.00000000D+00 -0.00000000D+00  0.65242424D-03
 -0.25707233D-03 -0.42719922D-02  0.70646261D-02 -0.11450570D-02  0.51766742D-02
  0.25047997D-02 -0.64447132D-02 -0.17359303D-02  0.26792273D-03  0.52352633D-04
 -0.00000000D+00  0.00000000D+00 -0.70421179D-04  0.00000000D+00  0.00000000D+00
  0.10023068D-03 -0.00000000D+00 -0.00000000D+00 -0.87832347D-04  0.00000000D+00
  0.00000000D+00 -0.11497504D-06 -0.31454045D-08 -0.31454045D-08  0.00000000D+00
 -0.00000000D+00  0.00000000D+00  0.32222530D-06 -0.88842145D-07 -0.88842145D-07
 -0.00000000D+00 -0.00000000D+00 -0.00000000D+00
MO    4     MO 0.0        OCC NO =    0.0000000  ORB. ENERGY =    0.004066
 -0.00000000D+00  0.00000000D+00 -0.00000000D+00  0.00000000D+00 -0.00000000D+00
  0.00000000D+00  0.00000000D+00 -0.00000000D+00  0.00000000D+00 -0.00000000D+00
  0.00000000D+00  0.42216766D-06 -0.37286470D-07 -0.00000000D+00 -0.65418343D-05
  0.57778489D-06 -0.00000000D+00  0.10892858D-03 -0.96207372D-05  0.00000000D+00
  0.12004519D-03 -0.10602572D-04  0.00000000D+00 -0.00000000D+00 -0.00000000D+00
  0.14881393D-07 -0.13143458D-08 -0.00000000D+00 -0.00000000D+00  0.00000000D+00
 -0.00000000D+00 -0.22138320D-07  0.19552917D-08 -0.00000000D+00 -0.00000000D+00
  0.00000000D+00  0.00000000D+00 -0.00000000D+00  0.00000000D+00 -0.00000000D+00
  0.00000000D+00 -0.00000000D+00  0.00000000D+00 -0.00000000D+00 -0.00000000D+00
  0.42216766D-06 -0.37286470D-07  0.00000000D+00 -0.65418343D-05  0.57778489D-06
 -0.00000000D+00  0.10892858D-03 -0.96207372D-05  0.00000000D+00  0.12004519D-03
 -0.10602572D-04  0.00000000D+00 -0.00000000D+00 -0.00000000D+00 -0.14881393D-07
  0.13143458D-08 -0.00000000D+00 -0.00000000D+00 -0.00000000D+00 -0.00000000D+00
  0.22138320D-07 -0.19552917D-08  0.00000000D+00
MO    5     MO 0.0        OCC NO =    0.0000000  ORB. ENERGY =    0.004066
 -0.00000000D+00 -0.00000000D+00  0.00000000D+00 -0.00000000D+00  0.00000000D+00
 -0.00000000D+00  0.00000000D+00  0.00000000D+00 -0.00000000D+00  0.00000000D+00
  0.00000000D+00 -0.37286470D-07 -0.42216766D-06  0.00000000D+00  0.57778489D-06
  0.65418343D-05  0.00000000D+00 -0.96207372D-05 -0.10892858D-03  0.00000000D+00
 -0.10602572D-04 -0.12004519D-03  0.00000000D+00  0.00000000D+00  0.00000000D+00
 -0.13143458D-08 -0.14881393D-07  0.00000000D+00  0.00000000D+00 -0.00000000D+00
 -0.00000000D+00  0.19552917D-08  0.22138320D-07 -0.00000000D+00 -0.00000000D+00
 -0.00000000D+00 -0.00000000D+00  0.00000000D+00 -0.00000000D+00  0.00000000D+00
 -0.00000000D+00  0.00000000D+00 -0.00000000D+00  0.00000000D+00 -0.00000000D+00
 -0.37286470D-07 -0.42216766D-06 -0.00000000D+00  0.57778489D-06  0.65418343D-05
  0.00000000D+00 -0.96207372D-05 -0.10892858D-03 -0.00000000D+00 -0.10602572D-04
 -0.12004519D-03  0.00000000D+00  0.00000000D+00 -0.00000000D+00  0.13143458D-08
  0.14881393D-07 -0.00000000D+00  0.00000000D+00  0.00000000D+00  0.00000000D+00
 -0.19552917D-08 -0.22138320D-07  0.00000000D+00
MO    6     MO 0.0        OCC NO =    0.0000000  ORB. ENERGY =    0.005793
 -0.10386072D-04 -0.62010824D-05  0.25978748D-01 -0.45833196D-02 -0.60350912D-02
 -0.31758227D-02 -0.73547274D-02  0.12367356D-01  0.14811006D-02  0.91088043D-04
  0.17614824D-05 -0.00000000D+00 -0.00000000D+00  0.16211198D-05  0.00000000D+00
  0.00000000D+00  0.38040054D-03  0.00000000D+00 -0.00000000D+00 -0.21751299D-03
  0.00000000D+00 -0.00000000D+00  0.28694763D-07  0.42919058D-07  0.42919058D-07
 -0.00000000D+00 -0.00000000D+00  0.00000000D+00  0.47151701D-06  0.30289361D-06
  0.30289361D-06 -0.00000000D+00  0.00000000D+00  0.00000000D+00  0.10386072D-04
  0.62010824D-05 -0.25978748D-01  0.45833196D-02  0.60350912D-02  0.31758227D-02
  0.73547274D-02 -0.12367356D-01 -0.14811006D-02 -0.91088043D-04  0.17614824D-05
  0.00000000D+00  0.00000000D+00  0.16211198D-05 -0.00000000D+00 -0.00000000D+00
  0.38040054D-03 -0.00000000D+00  0.00000000D+00 -0.21751299D-03 -0.00000000D+00
  0.00000000D+00 -0.28694763D-07 -0.42919058D-07 -0.42919058D-07 -0.00000000D+00
 -0.00000000D+00 -0.00000000D+00 -0.47151701D-06 -0.30289361D-06 -0.30289361D-06
  0.00000000D+00  0.00000000D+00  0.00000000D+00
MO    7     MO 0.0        OCC NO =    0.0000000  ORB. ENERGY =    0.006760
 -0.10716159D-02  0.15595410D-02  0.13706399D-03 -0.68291398D-02  0.52117886D-02
 -0.18492837D-02  0.26234586D-02 -0.29020410D-02  0.28706336D-03 -0.22786815D-03
  0.11130742D-03 -0.00000000D+00  0.00000000D+00 -0.12473226D-03  0.00000000D+00
  0.00000000D+00  0.14454388D-03 -0.00000000D+00 -0.00000000D+00  0.46708863D-03
 -0.00000000D+00 -0.00000000D+00  0.23452359D-06 -0.36797978D-08 -0.36797978D-08
 -0.00000000D+00  0.00000000D+00  0.00000000D+00 -0.83583544D-06 -0.10535543D-06
 -0.10535543D-06  0.00000000D+00  0.00000000D+00  0.00000000D+00 -0.10716159D-02
  0.15595410D-02  0.13706399D-03 -0.68291398D-02  0.52117886D-02 -0.18492837D-02
  0.26234586D-02 -0.29020410D-02  0.28706336D-03 -0.22786815D-03 -0.11130742D-03
  0.00000000D+00 -0.00000000D+00  0.12473226D-03 -0.00000000D+00 -0.00000000D+00
 -0.14454388D-03  0.00000000D+00  0.00000000D+00 -0.46708863D-03  0.00000000D+00
  0.00000000D+00  0.23452359D-06 -0.36797978D-08 -0.36797978D-08 -0.00000000D+00
  0.00000000D+00 -0.00000000D+00 -0.83583544D-06 -0.10535543D-06 -0.10535543D-06
  0.00000000D+00  0.00000000D+00  0.00000000D+00
MO    8     MO 0.0        OCC NO =    0.0000000  ORB. ENERGY =    0.007080
  0.00000000D+00  0.00000000D+00 -0.00000000D+00 -0.00000000D+00 -0.00000000D+00
 -0.00000000D+00 -0.00000000D+00  0.00000000D+00  0.00000000D+00 -0.00000000D+00
 -0.00000000D+00 -0.86364970D-05  0.23869965D-03  0.00000000D+00  0.75929722D-05
 -0.20985820D-03 -0.00000000D+00 -0.77733277D-05  0.21484295D-03  0.00000000D+00
 -0.19857366D-04  0.54882739D-03 -0.00000000D+00  0.00000000D+00  0.00000000D+00
 -0.18281237D-07  0.50526561D-06  0.00000000D+00  0.00000000D+00  0.00000000D+00
  0.00000000D+00  0.43664172D-07 -0.12068114D-05 -0.00000000D+00 -0.00000000D+00
 -0.00000000D+00  0.00000000D+00 -0.00000000D+00  0.00000000D+00 -0.00000000D+00
  0.00000000D+00 -0.00000000D+00 -0.00000000D+00  0.00000000D+00  0.00000000D+00
  0.86364970D-05 -0.23869965D-03  0.00000000D+00 -0.75929722D-05  0.20985820D-03
 -0.00000000D+00  0.77733277D-05 -0.21484295D-03 -0.00000000D+00  0.19857366D-04
 -0.54882739D-03 -0.00000000D+00 -0.00000000D+00 -0.00000000D+00 -0.18281237D-07
  0.50526561D-06 -0.00000000D+00 -0.00000000D+00 -0.00000000D+00 -0.00000000D+00
  0.43664172D-07 -0.12068114D-05  0.00000000D+00
MO    9     MO 0.0        OCC NO =    0.0000000  ORB. ENERGY =    0.007080
  0.00000000D+00 -0.00000000D+00  0.00000000D+00 -0.00000000D+00  0.00000000D+00
 -0.00000000D+00  0.00000000D+00 -0.00000000D+00  0.00000000D+00 -0.00000000D+00
 -0.00000000D+00  0.23869965D-03  0.86364970D-05 -0.00000000D+00 -0.20985820D-03
 -0.75929722D-05  0.00000000D+00  0.21484295D-03  0.77733277D-05  0.00000000D+00
  0.54882739D-03  0.19857366D-04 -0.00000000D+00 -0.00000000D+00 -0.00000000D+00
  0.50526561D-06  0.18281237D-07  0.00000000D+00 -0.00000000D+00  0.00000000D+00
  0.00000000D+00 -0.12068114D-05 -0.43664172D-07 -0.00000000D+00 -0.00000000D+00
  0.00000000D+00 -0.00000000D+00 -0.00000000D+00  0.00000000D+00 -0.00000000D+00
  0.00000000D+00 -0.00000000D+00  0.00000000D+00 -0.00000000D+00  0.00000000D+00
 -0.23869965D-03 -0.86364970D-05 -0.00000000D+00  0.20985820D-03  0.75929722D-05
  0.00000000D+00 -0.21484295D-03 -0.77733277D-05 -0.00000000D+00 -0.54882739D-03
 -0.19857366D-04 -0.00000000D+00  0.00000000D+00  0.00000000D+00  0.50526561D-06
  0.18281237D-07 -0.00000000D+00  0.00000000D+00  0.00000000D+00  0.00000000D+00
 -0.12068114D-05 -0.43664172D-07  0.00000000D+00
MO   10     MO 0.0        OCC NO =    0.0000000  ORB. ENERGY =    0.010363
  0.00000000D+00  0.00000000D+00  0.00000000D+00  0.00000000D+00  0.00000000D+00
  0.00000000D+00  0.00000000D+00 -0.00000000D+00  0.00000000D+00 -0.00000000D+00
 -0.00000000D+00 -0.55636953D-06  0.15270370D-06 -0.00000000D+00  0.85871997D-05
 -0.23568826D-05  0.00000000D+00 -0.16833384D-03  0.46201689D-04  0.00000000D+00
  0.72934682D-03 -0.20017993D-03 -0.00000000D+00  0.00000000D+00  0.00000000D+00
 -0.15329340D-07  0.42073627D-08 -0.00000000D+00  0.00000000D+00 -0.00000000D+00
 -0.00000000D+00 -0.67539884D-09  0.18536232D-09  0.00000000D+00  0.00000000D+00
  0.00000000D+00 -0.00000000D+00 -0.00000000D+00 -0.00000000D+00 -0.00000000D+00
 -0.00000000D+00  0.00000000D+00  0.00000000D+00  0.00000000D+00  0.00000000D+00
 -0.55636953D-06  0.15270370D-06  0.00000000D+00  0.85871997D-05 -0.23568826D-05
  0.00000000D+00 -0.16833384D-03  0.46201689D-04  0.00000000D+00  0.72934682D-03
 -0.20017993D-03 -0.00000000D+00 -0.00000000D+00 -0.00000000D+00  0.15329340D-07
 -0.42073627D-08  0.00000000D+00 -0.00000000D+00  0.00000000D+00  0.00000000D+00
  0.67539884D-09 -0.18536232D-09 -0.00000000D+00
MO   11     MO 0.0        OCC NO =    0.0000000  ORB. ENERGY =    0.010363
 -0.00000000D+00 -0.00000000D+00  0.00000000D+00  0.00000000D+00  0.00000000D+00
  0.00000000D+00  0.00000000D+00 -0.00000000D+00  0.00000000D+00 -0.00000000D+00
  0.00000000D+00 -0.15270370D-06 -0.55636953D-06  0.00000000D+00  0.23568826D-05
  0.85871997D-05  0.00000000D+00 -0.46201689D-04 -0.16833384D-03  0.00000000D+00
  0.20017993D-03  0.72934682D-03  0.00000000D+00  0.00000000D+00  0.00000000D+00
 -0.42073627D-08 -0.15329340D-07  0.00000000D+00  0.00000000D+00 -0.00000000D+00
 -0.00000000D+00 -0.18536232D-09 -0.67539884D-09 -0.00000000D+00 -0.00000000D+00
 -0.00000000D+00 -0.00000000D+00 -0.00000000D+00  0.00000000D+00 -0.00000000D+00
 -0.00000000D+00  0.00000000D+00 -0.00000000D+00  0.00000000D+00 -0.00000000D+00
 -0.15270370D-06 -0.55636953D-06 -0.00000000D+00  0.23568826D-05  0.85871997D-05
  0.00000000D+00 -0.46201689D-04 -0.16833384D-03  0.00000000D+00  0.20017993D-03
  0.72934682D-03  0.00000000D+00 -0.00000000D+00 -0.00000000D+00  0.42073627D-08
  0.15329340D-07 -0.00000000D+00 -0.00000000D+00 -0.00000000D+00 -0.00000000D+00
  0.18536232D-09  0.67539884D-09  0.00000000D+00
MO   12     MO 0.0        OCC NO =    0.0000000  ORB. ENERGY =    0.010536
 -0.44790474D-05  0.69543800D-04  0.52668681D-01  0.12150210D-01  0.41691333D-03
  0.19487460D-02  0.16990468D-02 -0.35234807D-02 -0.71895471D-03  0.69402670D-04
  0.78096640D-06  0.00000000D+00 -0.00000000D+00 -0.74288064D-05  0.00000000D+00
  0.00000000D+00  0.94733347D-03  0.00000000D+00 -0.00000000D+00  0.19317469D-02
 -0.00000000D+00  0.00000000D+00 -0.25785010D-08  0.32446655D-07  0.32446655D-07
  0.00000000D+00 -0.00000000D+00  0.00000000D+00  0.17052592D-06 -0.19329328D-06
 -0.19329328D-06  0.00000000D+00  0.00000000D+00  0.00000000D+00  0.44790474D-05
 -0.69543800D-04 -0.52668681D-01 -0.12150210D-01 -0.41691333D-03 -0.19487460D-02
 -0.16990468D-02  0.35234807D-02  0.71895471D-03 -0.69402670D-04  0.78096640D-06
 -0.00000000D+00  0.00000000D+00 -0.74288064D-05 -0.00000000D+00 -0.00000000D+00
  0.94733347D-03  0.00000000D+00  0.00000000D+00  0.19317469D-02 -0.00000000D+00
 -0.00000000D+00  0.25785010D-08 -0.32446655D-07 -0.32446655D-07  0.00000000D+00
 -0.00000000D+00 -0.00000000D+00 -0.17052592D-06  0.19329328D-06  0.19329328D-06
  0.00000000D+00  0.00000000D+00 -0.00000000D+00
MO   13     MO 0.0        OCC NO =    0.0000000  ORB. ENERGY =    0.013229
 -0.38657137D-03  0.75726711D-03  0.41034936D-03 -0.13249866D-01  0.25086016D-01
 -0.40036967D-02  0.14157521D-01 -0.18460639D-01 -0.20668188D-04 -0.85429239D-03
  0.67518037D-04 -0.00000000D+00  0.00000000D+00 -0.15641841D-04  0.00000000D+00
  0.00000000D+00  0.12008781D-03 -0.00000000D+00  0.00000000D+00 -0.30472350D-03
  0.00000000D+00 -0.00000000D+00  0.13259513D-06 -0.11202499D-07 -0.11202499D-07
 -0.00000000D+00  0.00000000D+00  0.00000000D+00 -0.29698294D-06 -0.25086312D-06
 -0.25086312D-06  0.00000000D+00  0.00000000D+00  0.00000000D+00 -0.38657137D-03
  0.75726711D-03  0.41034936D-03 -0.13249866D-01  0.25086016D-01 -0.40036967D-02
  0.14157521D-01 -0.18460639D-01 -0.20668188D-04 -0.85429239D-03 -0.67518037D-04
  0.00000000D+00 -0.00000000D+00  0.15641841D-04 -0.00000000D+00 -0.00000000D+00
 -0.12008781D-03  0.00000000D+00 -0.00000000D+00  0.30472350D-03 -0.00000000D+00
  0.00000000D+00  0.13259513D-06 -0.11202499D-07 -0.11202499D-07 -0.00000000D+00
  0.00000000D+00 -0.00000000D+00 -0.29698294D-06 -0.25086312D-06 -0.25086312D-06
  0.00000000D+00  0.00000000D+00 -0.00000000D+00
MO   14     MO 0.0        OCC NO =    0.0000000  ORB. ENERGY =    0.015543
  0.00000000D+00  0.00000000D+00 -0.00000000D+00  0.00000000D+00 -0.00000000D+00
  0.00000000D+00 -0.00000000D+00  0.00000000D+00 -0.00000000D+00  0.00000000D+00
  0.00000000D+00 -0.18776003D-03  0.44199751D-03  0.00000000D+00  0.15659629D-03
 -0.36863633D-03  0.00000000D+00 -0.20980572D-03  0.49389427D-03  0.00000000D+00
  0.43635339D-03 -0.10272000D-02  0.00000000D+00  0.00000000D+00 -0.00000000D+00
 -0.39727543D-06  0.93520835D-06  0.00000000D+00  0.00000000D+00 -0.00000000D+00
 -0.00000000D+00  0.88898044D-06 -0.20927092D-05 -0.00000000D+00 -0.00000000D+00
 -0.00000000D+00  0.00000000D+00 -0.00000000D+00  0.00000000D+00 -0.00000000D+00
  0.00000000D+00 -0.00000000D+00  0.00000000D+00 -0.00000000D+00 -0.00000000D+00
  0.18776003D-03 -0.44199751D-03  0.00000000D+00 -0.15659629D-03  0.36863633D-03
  0.00000000D+00  0.20980572D-03 -0.49389427D-03  0.00000000D+00 -0.43635339D-03
  0.10272000D-02  0.00000000D+00 -0.00000000D+00  0.00000000D+00 -0.39727543D-06
  0.93520835D-06 -0.00000000D+00 -0.00000000D+00  0.00000000D+00  0.00000000D+00
  0.88898044D-06 -0.20927092D-05  0.00000000D+00
MO   15     MO 0.0        OCC NO =    0.0000000  ORB. ENERGY =    0.015543
  0.00000000D+00 -0.00000000D+00  0.00000000D+00 -0.00000000D+00  0.00000000D+00
 -0.00000000D+00  0.00000000D+00 -0.00000000D+00  0.00000000D+00 -0.00000000D+00
 -0.00000000D+00  0.44199751D-03  0.18776003D-03 -0.00000000D+00 -0.36863633D-03
 -0.15659629D-03 -0.00000000D+00  0.49389427D-03  0.20980572D-03  0.00000000D+00
 -0.10272000D-02 -0.43635339D-03 -0.00000000D+00  0.00000000D+00  0.00000000D+00
  0.93520835D-06  0.39727543D-06  0.00000000D+00 -0.00000000D+00  0.00000000D+00
  0.00000000D+00 -0.20927092D-05 -0.88898044D-06 -0.00000000D+00 -0.00000000D+00
  0.00000000D+00  0.00000000D+00 -0.00000000D+00  0.00000000D+00 -0.00000000D+00
  0.00000000D+00 -0.00000000D+00 -0.00000000D+00 -0.00000000D+00  0.00000000D+00
 -0.44199751D-03 -0.18776003D-03 -0.00000000D+00  0.36863633D-03  0.15659629D-03
  0.00000000D+00 -0.49389427D-03 -0.20980572D-03 -0.00000000D+00  0.10272000D-02
  0.43635339D-03 -0.00000000D+00  0.00000000D+00  0.00000000D+00  0.93520835D-06
  0.39727543D-06 -0.00000000D+00  0.00000000D+00  0.00000000D+00  0.00000000D+00
 -0.20927092D-05 -0.88898044D-06  0.00000000D+00
MO   16     MO 0.0        OCC NO =    0.0000000  ORB. ENERGY =    0.015627
  0.11809786D-04  0.93980772D-04  0.10527671D-02  0.30457457D-01 -0.24796681D-01
  0.47857225D-02 -0.12086482D-01  0.15075214D-01 -0.31456899D-03  0.80592370D-03
 -0.19699141D-05  0.00000000D+00  0.00000000D+00 -0.13617102D-04 -0.00000000D+00
  0.00000000D+00  0.26367915D-03  0.00000000D+00 -0.00000000D+00  0.61810306D-03
 -0.00000000D+00  0.00000000D+00 -0.47233655D-07 -0.33380288D-07 -0.33380288D-07
  0.00000000D+00  0.00000000D+00 -0.00000000D+00 -0.63791035D-06 -0.73462603D-06
 -0.73462603D-06 -0.00000000D+00  0.00000000D+00  0.00000000D+00 -0.11809786D-04
 -0.93980772D-04 -0.10527671D-02 -0.30457457D-01  0.24796681D-01 -0.47857225D-02
  0.12086482D-01 -0.15075214D-01  0.31456899D-03 -0.80592370D-03 -0.19699139D-05
 -0.00000000D+00 -0.00000000D+00 -0.13617102D-04  0.00000000D+00 -0.00000000D+00
  0.26367915D-03 -0.00000000D+00  0.00000000D+00  0.61810306D-03  0.00000000D+00
 -0.00000000D+00  0.47233655D-07  0.33380288D-07  0.33380288D-07  0.00000000D+00
  0.00000000D+00  0.00000000D+00  0.63791035D-06  0.73462603D-06  0.73462603D-06
 -0.00000000D+00  0.00000000D+00 -0.00000000D+00
MO   17     MO 0.0        OCC NO =    0.0000000  ORB. ENERGY =    0.015849
 -0.29169522D-02  0.50714448D-02 -0.67749237D-02  0.83015177D-02 -0.58932902D-02
  0.11288637D-02 -0.24386804D-02  0.30509870D-02 -0.45778633D-04  0.15723376D-03
  0.31493189D-03 -0.00000000D+00  0.00000000D+00 -0.33948275D-03 -0.00000000D+00
  0.00000000D+00  0.41494581D-03  0.00000000D+00  0.00000000D+00 -0.73191908D-03
 -0.00000000D+00 -0.00000000D+00  0.66030507D-06 -0.14105622D-07 -0.14105622D-07
 -0.00000000D+00  0.00000000D+00  0.00000000D+00 -0.24247098D-05 -0.43686357D-06
 -0.43686357D-06  0.00000000D+00  0.00000000D+00 -0.00000000D+00 -0.29169522D-02
  0.50714448D-02 -0.67749237D-02  0.83015177D-02 -0.58932902D-02  0.11288637D-02
 -0.24386804D-02  0.30509870D-02 -0.45778633D-04  0.15723376D-03 -0.31493189D-03
  0.00000000D+00 -0.00000000D+00  0.33948275D-03  0.00000000D+00 -0.00000000D+00
 -0.41494581D-03 -0.00000000D+00 -0.00000000D+00  0.73191908D-03  0.00000000D+00
  0.00000000D+00  0.66030507D-06 -0.14105622D-07 -0.14105622D-07 -0.00000000D+00
  0.00000000D+00 -0.00000000D+00 -0.24247098D-05 -0.43686357D-06 -0.43686357D-06
  0.00000000D+00  0.00000000D+00  0.00000000D+00
MO   18     MO 0.0        OCC NO =    0.0000000  ORB. ENERGY =    0.022348
  0.38214626D-04  0.36533757D-03  0.10193072D+00 -0.41744156D-01  0.17778052D-01
 -0.51436822D-02  0.61930388D-02 -0.63606444D-02  0.85879490D-03 -0.57528418D-03
 -0.63917568D-05 -0.00000000D+00 -0.00000000D+00 -0.43679802D-04  0.00000000D+00
  0.00000000D+00  0.24020115D-02 -0.00000000D+00 -0.00000000D+00 -0.24869215D-02
 -0.00000000D+00 -0.00000000D+00 -0.17615483D-06 -0.10050098D-06 -0.10050098D-06
 -0.00000000D+00 -0.00000000D+00  0.00000000D+00 -0.18890544D-05 -0.25446592D-05
 -0.25446592D-05  0.00000000D+00  0.00000000D+00  0.00000000D+00 -0.38214626D-04
 -0.36533757D-03 -0.10193072D+00  0.41744156D-01 -0.17778052D-01  0.51436822D-02
 -0.61930388D-02  0.63606444D-02 -0.85879490D-03  0.57528418D-03 -0.63917568D-05
  0.00000000D+00  0.00000000D+00 -0.43679802D-04 -0.00000000D+00 -0.00000000D+00
  0.24020115D-02  0.00000000D+00  0.00000000D+00 -0.24869215D-02  0.00000000D+00
  0.00000000D+00  0.17615483D-06  0.10050098D-06  0.10050098D-06 -0.00000000D+00
 -0.00000000D+00 -0.00000000D+00  0.18890544D-05  0.25446592D-05  0.25446592D-05
  0.00000000D+00  0.00000000D+00 -0.00000000D+00
MO   19     MO 0.0        OCC NO =    0.0000000  ORB. ENERGY =    0.028193
  0.32119549D-02  0.16668770D-02 -0.17177494D-01  0.19292204D-01 -0.12109996D-01
 -0.52246582D-02 -0.34701773D-02  0.78170349D-02  0.18562506D-02 -0.22707464D-03
 -0.87873918D-04 -0.00000000D+00 -0.00000000D+00  0.37126277D-03  0.00000000D+00
 -0.00000000D+00  0.11888655D-04 -0.00000000D+00  0.00000000D+00 -0.82329025D-04
  0.00000000D+00 -0.00000000D+00 -0.26970205D-06 -0.78570153D-07 -0.78570153D-07
 -0.00000000D+00 -0.00000000D+00 -0.00000000D+00  0.62724484D-06 -0.17366680D-05
 -0.17366680D-05  0.00000000D+00 -0.00000000D+00  0.00000000D+00  0.32119549D-02
  0.16668770D-02 -0.17177494D-01  0.19292204D-01 -0.12109996D-01 -0.52246582D-02
 -0.34701773D-02  0.78170349D-02  0.18562506D-02 -0.22707464D-03  0.87873918D-04
  0.00000000D+00  0.00000000D+00 -0.37126277D-03 -0.00000000D+00  0.00000000D+00
 -0.11888655D-04  0.00000000D+00 -0.00000000D+00  0.82329025D-04 -0.00000000D+00
  0.00000000D+00 -0.26970205D-06 -0.78570153D-07 -0.78570153D-07 -0.00000000D+00
 -0.00000000D+00  0.00000000D+00  0.62724484D-06 -0.17366680D-05 -0.17366680D-05
  0.00000000D+00 -0.00000000D+00 -0.00000000D+00
MO   20     MO 0.0        OCC NO =    0.0000000  ORB. ENERGY =    0.036573
  0.19118941D-03  0.37631899D-03 -0.40238630D-02  0.48746760D-02  0.10529705D-02
 -0.11716066D-01  0.22786308D-02  0.26493492D-02  0.29558990D-02 -0.81723420D-03
 -0.31712661D-04 -0.00000000D+00 -0.00000000D+00 -0.30496854D-04  0.00000000D+00
  0.00000000D+00  0.53403887D-03 -0.00000000D+00 -0.00000000D+00 -0.63393772D-03
  0.00000000D+00  0.00000000D+00 -0.78551271D-06 -0.79426964D-06 -0.79426964D-06
 -0.00000000D+00 -0.00000000D+00 -0.00000000D+00 -0.68444040D-05 -0.65791012D-05
 -0.65791012D-05  0.00000000D+00  0.00000000D+00  0.00000000D+00 -0.19118941D-03
 -0.37631899D-03  0.40238630D-02 -0.48746760D-02 -0.10529705D-02  0.11716066D-01
 -0.22786308D-02 -0.26493492D-02 -0.29558990D-02  0.81723420D-03 -0.31712661D-04
  0.00000000D+00  0.00000000D+00 -0.30496854D-04 -0.00000000D+00 -0.00000000D+00
  0.53403887D-03  0.00000000D+00  0.00000000D+00 -0.63393772D-03 -0.00000000D+00
 -0.00000000D+00  0.78551271D-06  0.79426964D-06  0.79426964D-06 -0.00000000D+00
 -0.00000000D+00  0.00000000D+00  0.68444040D-05  0.65791012D-05  0.65791012D-05
  0.00000000D+00  0.00000000D+00 -0.00000000D+00
MO   21     MO 0.0        OCC NO =    0.0000000  ORB. ENERGY =    0.037977
  0.00000000D+00 -0.00000000D+00  0.00000000D+00 -0.00000000D+00 -0.00000000D+00
  0.00000000D+00 -0.00000000D+00 -0.00000000D+00 -0.00000000D+00  0.00000000D+00
 -0.00000000D+00  0.00000000D+00  0.00000000D+00  0.00000000D+00 -0.00000000D+00
 -0.00000000D+00 -0.00000000D+00  0.00000000D+00  0.00000000D+00  0.00000000D+00
 -0.00000000D+00 -0.00000000D+00 -0.00000000D+00  0.46718103D-08 -0.46718103D-08
  0.00000000D+00  0.00000000D+00  0.89158462D-07  0.00000000D+00 -0.64457991D-07
  0.64457991D-07 -0.00000000D+00 -0.00000000D+00 -0.12301391D-05  0.00000000D+00
 -0.00000000D+00  0.00000000D+00 -0.00000000D+00  0.00000000D+00 -0.00000000D+00
  0.00000000D+00  0.00000000D+00 -0.00000000D+00  0.00000000D+00  0.00000000D+00
 -0.00000000D+00 -0.00000000D+00 -0.00000000D+00  0.00000000D+00  0.00000000D+00
 -0.00000000D+00 -0.00000000D+00 -0.00000000D+00  0.00000000D+00  0.00000000D+00
  0.00000000D+00 -0.00000000D+00  0.46718103D-08 -0.46718103D-08  0.00000000D+00
  0.00000000D+00  0.89158462D-07  0.00000000D+00 -0.64457991D-07  0.64457991D-07
 -0.00000000D+00 -0.00000000D+00 -0.12301391D-05
MO   22     MO 0.0        OCC NO =    0.0000000  ORB. ENERGY =    0.037977
 -0.00000000D+00  0.00000000D+00 -0.00000000D+00 -0.00000000D+00  0.00000000D+00
 -0.00000000D+00  0.00000000D+00 -0.00000000D+00  0.00000000D+00  0.00000000D+00
  0.00000000D+00 -0.00000000D+00 -0.00000000D+00 -0.00000000D+00  0.00000000D+00
  0.00000000D+00  0.00000000D+00 -0.00000000D+00 -0.00000000D+00 -0.00000000D+00
  0.00000000D+00  0.00000000D+00  0.00000000D+00  0.44579231D-07 -0.44579231D-07
 -0.00000000D+00 -0.00000000D+00 -0.93436200D-08 -0.00000000D+00 -0.61506953D-06
  0.61506953D-06  0.00000000D+00  0.00000000D+00  0.12891598D-06 -0.00000000D+00
  0.00000000D+00 -0.00000000D+00  0.00000000D+00 -0.00000000D+00 -0.00000000D+00
 -0.00000000D+00  0.00000000D+00 -0.00000000D+00  0.00000000D+00 -0.00000000D+00
  0.00000000D+00  0.00000000D+00  0.00000000D+00 -0.00000000D+00 -0.00000000D+00
 -0.00000000D+00  0.00000000D+00  0.00000000D+00  0.00000000D+00 -0.00000000D+00
 -0.00000000D+00  0.00000000D+00  0.44579231D-07 -0.44579231D-07 -0.00000000D+00
 -0.00000000D+00 -0.93436200D-08 -0.00000000D+00 -0.61506953D-06  0.61506953D-06
  0.00000000D+00  0.00000000D+00  0.12891598D-06
MO   23     MO 0.0        OCC NO =    0.0000000  ORB. ENERGY =    0.042378
  0.00000000D+00 -0.00000000D+00 -0.00000000D+00  0.00000000D+00 -0.00000000D+00
  0.00000000D+00 -0.00000000D+00 -0.00000000D+00 -0.00000000D+00  0.00000000D+00
 -0.00000000D+00  0.14625831D-05  0.10771830D-07  0.00000000D+00 -0.49561217D-04
 -0.36501544D-06 -0.00000000D+00  0.20952048D-03  0.15431049D-05  0.00000000D+00
 -0.31724310D-03 -0.23364776D-05 -0.00000000D+00 -0.00000000D+00 -0.00000000D+00
  0.50701012D-06  0.37340977D-08  0.00000000D+00  0.00000000D+00  0.00000000D+00
  0.00000000D+00 -0.25272223D-05 -0.18612829D-07 -0.00000000D+00  0.00000000D+00
 -0.00000000D+00  0.00000000D+00 -0.00000000D+00  0.00000000D+00 -0.00000000D+00
  0.00000000D+00 -0.00000000D+00  0.00000000D+00 -0.00000000D+00  0.00000000D+00
  0.14625828D-05  0.10771830D-07 -0.00000000D+00 -0.49561217D-04 -0.36501544D-06
  0.00000000D+00  0.20952048D-03  0.15431049D-05  0.00000000D+00 -0.31724310D-03
 -0.23364776D-05 -0.00000000D+00  0.00000000D+00  0.00000000D+00 -0.50701012D-06
 -0.37340977D-08 -0.00000000D+00  0.00000000D+00  0.00000000D+00  0.00000000D+00
  0.25272223D-05  0.18612829D-07  0.00000000D+00
MO   24     MO 0.0        OCC NO =    0.0000000  ORB. ENERGY =    0.042378
 -0.00000000D+00  0.00000000D+00 -0.00000000D+00  0.00000000D+00  0.00000000D+00
 -0.00000000D+00  0.00000000D+00  0.00000000D+00  0.00000000D+00 -0.00000000D+00
  0.00000000D+00  0.10771830D-07 -0.14625825D-05 -0.00000000D+00 -0.36501544D-06
  0.49561217D-04  0.00000000D+00  0.15431049D-05 -0.20952048D-03 -0.00000000D+00
 -0.23364776D-05  0.31724310D-03  0.00000000D+00  0.00000000D+00  0.00000000D+00
  0.37340977D-08 -0.50701012D-06  0.00000000D+00 -0.00000000D+00  0.00000000D+00
  0.00000000D+00 -0.18612829D-07  0.25272223D-05 -0.00000000D+00 -0.00000000D+00
  0.00000000D+00 -0.00000000D+00  0.00000000D+00 -0.00000000D+00  0.00000000D+00
 -0.00000000D+00  0.00000000D+00 -0.00000000D+00  0.00000000D+00 -0.00000000D+00
  0.10771830D-07 -0.14625834D-05  0.00000000D+00 -0.36501544D-06  0.49561217D-04