 Molden2AIM, Version 3.1.0 (02/25/2015)           Time: Thu Oct 17 19:54:16 2024
GAUSSIAN             68 MOL ORBITALS     68 PRIMITIVES        2 NUCLEI
  Be   1    (CENTRE  1)   0.00000000  0.00000000  0.00000000  CHARGE =  4.0
  Be   2    (CENTRE  2)  30.40000000  0.00000000  0.00000000  CHARGE =  4.0
CENTRE ASSIGNMENTS    1  1  1  1  1  1  1  1  1  1  1  1  1  1  1  1  1  1  1  1
CENTRE ASSIGNMENTS    1  1  1  1  1  1  1  1  1  1  1  1  1  1  2  2  2  2  2  2
CENTRE ASSIGNMENTS    2  2  2  2  2  2  2  2  2  2  2  2  2  2  2  2  2  2  2  2
CENTRE ASSIGNMENTS    2  2  2  2  2  2  2  2
TYPE ASSIGNMENTS      1  1  1  1  1  1  1  1  1  1  2  3  4  2  3  4  2  3  4  2
TYPE ASSIGNMENTS      3  4  5  6  7  8  9 10  5  6  7  8  9 10  1  1  1  1  1  1
TYPE ASSIGNMENTS      1  1  1  1  2  3  4  2  3  4  2  3  4  2  3  4  5  6  7  8
TYPE ASSIGNMENTS      9 10  5  6  7  8  9 10
EXPONENTS  0.1000000D-03 0.3000000D-03 0.9000000D-03 0.2700000D-02 0.8100000D-02
EXPONENTS  0.2430000D-01 0.7290000D-01 0.2187000D+00 0.6561000D+00 0.1968300D+01
EXPONENTS  0.1000000D-03 0.1000000D-03 0.1000000D-03 0.3000000D-03 0.3000000D-03
EXPONENTS  0.3000000D-03 0.9000000D-03 0.9000000D-03 0.9000000D-03 0.2700000D-02
EXPONENTS  0.2700000D-02 0.2700000D-02 0.1000000D-03 0.1000000D-03 0.1000000D-03
EXPONENTS  0.1000000D-03 0.1000000D-03 0.1000000D-03 0.3000000D-03 0.3000000D-03
EXPONENTS  0.3000000D-03 0.3000000D-03 0.3000000D-03 0.3000000D-03 0.1000000D-03
EXPONENTS  0.3000000D-03 0.9000000D-03 0.2700000D-02 0.8100000D-02 0.2430000D-01
EXPONENTS  0.7290000D-01 0.2187000D+00 0.6561000D+00 0.1968300D+01 0.1000000D-03
EXPONENTS  0.1000000D-03 0.1000000D-03 0.3000000D-03 0.3000000D-03 0.3000000D-03
EXPONENTS  0.9000000D-03 0.9000000D-03 0.9000000D-03 0.2700000D-02 0.2700000D-02
EXPONENTS  0.2700000D-02 0.1000000D-03 0.1000000D-03 0.1000000D-03 0.1000000D-03
EXPONENTS  0.1000000D-03 0.1000000D-03 0.3000000D-03 0.3000000D-03 0.3000000D-03
EXPONENTS  0.3000000D-03 0.3000000D-03 0.3000000D-03
MO    1     MO 0.0        OCC NO =    1.0000000  ORB. ENERGY =   -0.003321
 -0.66226894D-04  0.12893238D-03  0.84941343D-05  0.22388875D-02  0.46292238D-02
  0.77414542D-02  0.11346234D-01 -0.20826718D-01 -0.31986956D-02  0.90791957D-04
  0.52365822D-05 -0.00000000D+00 -0.00000000D+00 -0.69406195D-05 -0.00000000D+00
  0.00000000D+00  0.13037780D-04 -0.00000000D+00 -0.00000000D+00 -0.24745250D-04
  0.00000000D+00  0.00000000D+00  0.15778468D-07 -0.46520526D-09 -0.46520526D-09
 -0.00000000D+00  0.00000000D+00 -0.00000000D+00 -0.67399505D-07 -0.12618054D-07
 -0.12618054D-07 -0.00000000D+00  0.00000000D+00  0.00000000D+00 -0.66226894D-04
  0.12893238D-03  0.84941343D-05  0.22388875D-02  0.46292238D-02  0.77414542D-02
  0.11346234D-01 -0.20826718D-01 -0.31986956D-02  0.90791957D-04 -0.52365822D-05
  0.00000000D+00  0.00000000D+00  0.69406195D-05  0.00000000D+00 -0.00000000D+00
 -0.13037780D-04  0.00000000D+00  0.00000000D+00  0.24745250D-04 -0.00000000D+00
  0.00000000D+00  0.15778468D-07 -0.46520526D-09 -0.46520526D-09 -0.00000000D+00
 -0.00000000D+00 -0.00000000D+00 -0.67399505D-07 -0.12618054D-07 -0.12618054D-07
 -0.00000000D+00  0.00000000D+00 -0.00000000D+00
MO    2     MO 0.0        OCC NO =    0.0000000  ORB. ENERGY =   -0.002458
  0.17999020D-05  0.14389348D-04  0.38981205D-03  0.29168613D-02  0.47703369D-02
  0.87408811D-02  0.11835611D-01 -0.22099096D-01 -0.35611682D-02  0.14979607D-03
 -0.20541226D-06  0.00000000D+00 -0.00000000D+00 -0.13442622D-05  0.00000000D+00
 -0.00000000D+00  0.24888661D-04 -0.00000000D+00  0.00000000D+00 -0.33729855D-04
  0.00000000D+00 -0.00000000D+00 -0.39474726D-08 -0.21261405D-08 -0.21261405D-08
  0.00000000D+00 -0.00000000D+00 -0.00000000D+00 -0.44972837D-07 -0.58374511D-07
 -0.58374511D-07 -0.00000000D+00  0.00000000D+00  0.00000000D+00 -0.17999020D-05
 -0.14389348D-04 -0.38981205D-03 -0.29168613D-02 -0.47703369D-02 -0.87408811D-02
 -0.11835611D-01  0.22099096D-01  0.35611682D-02 -0.14979607D-03 -0.20541226D-06
 -0.00000000D+00  0.00000000D+00 -0.13442622D-05  0.00000000D+00  0.00000000D+00
  0.24888661D-04  0.00000000D+00 -0.00000000D+00 -0.33729855D-04 -0.00000000D+00
  0.00000000D+00  0.39474726D-08  0.21261405D-08  0.21261405D-08  0.00000000D+00
 -0.00000000D+00 -0.00000000D+00  0.44972837D-07  0.58374511D-07  0.58374511D-07
 -0.00000000D+00 -0.00000000D+00  0.00000000D+00
MO    3     MO 0.0        OCC NO =    0.0000000  ORB. ENERGY =    0.004076
  0.56685563D-03 -0.52786524D-04 -0.41331788D-02  0.72569712D-02  0.20833447D-03
  0.50454434D-02  0.34170387D-02 -0.77223652D-02 -0.17904428D-02  0.22657721D-03
 -0.30088470D-04 -0.00000000D+00 -0.00000000D+00  0.37450886D-04  0.00000000D+00
  0.00000000D+00 -0.11270366D-03 -0.00000000D+00 -0.00000000D+00  0.47199764D-04
  0.00000000D+00  0.00000000D+00 -0.96170743D-07 -0.36034550D-08 -0.36034550D-08
 -0.00000000D+00 -0.00000000D+00 -0.00000000D+00  0.18303131D-06 -0.89736375D-07
 -0.89736375D-07  0.00000000D+00  0.00000000D+00  0.00000000D+00  0.56685563D-03
 -0.52786524D-04 -0.41331788D-02  0.72569712D-02  0.20833447D-03  0.50454434D-02
  0.34170387D-02 -0.77223652D-02 -0.17904428D-02  0.22657721D-03  0.30088470D-04
  0.00000000D+00  0.00000000D+00 -0.37450886D-04 -0.00000000D+00 -0.00000000D+00
  0.11270366D-03  0.00000000D+00  0.00000000D+00 -0.47199764D-04 -0.00000000D+00
 -0.00000000D+00 -0.96170743D-07 -0.36034550D-08 -0.36034550D-08 -0.00000000D+00
 -0.00000000D+00  0.00000000D+00  0.18303131D-06 -0.89736375D-07 -0.89736375D-07
  0.00000000D+00  0.00000000D+00 -0.00000000D+00
MO    4     MO 0.0        OCC NO =    0.0000000  ORB. ENERGY =    0.004883
 -0.00000000D+00 -0.00000000D+00 -0.00000000D+00  0.00000000D+00 -0.00000000D+00
  0.00000000D+00  0.00000000D+00 -0.00000000D+00  0.00000000D+00 -0.00000000D+00
  0.00000000D+00 -0.44144264D-07 -0.39000997D-06  0.00000000D+00  0.60431396D-06
  0.53390503D-05 -0.00000000D+00 -0.90288842D-05 -0.79769263D-04 -0.00000000D+00
 -0.30796459D-04 -0.27208353D-03  0.00000000D+00 -0.00000000D+00  0.00000000D+00
 -0.32516759D-09 -0.28728245D-08  0.00000000D+00  0.00000000D+00 -0.00000000D+00
 -0.00000000D+00 -0.41433586D-08 -0.36606192D-07 -0.00000000D+00 -0.00000000D+00
 -0.00000000D+00 -0.00000000D+00  0.00000000D+00 -0.00000000D+00  0.00000000D+00
 -0.00000000D+00  0.00000000D+00  0.00000000D+00 -0.00000000D+00 -0.00000000D+00
 -0.44144264D-07 -0.39000997D-06 -0.00000000D+00  0.60431396D-06  0.53390503D-05
 -0.00000000D+00 -0.90288842D-05 -0.79769263D-04 -0.00000000D+00 -0.30796459D-04
 -0.27208353D-03  0.00000000D+00 -0.00000000D+00 -0.00000000D+00  0.32516759D-09
  0.28728245D-08 -0.00000000D+00  0.00000000D+00 -0.00000000D+00 -0.00000000D+00
  0.41433586D-08  0.36606192D-07  0.00000000D+00
MO    5     MO 0.0        OCC NO =    0.0000000  ORB. ENERGY =    0.004883
 -0.00000000D+00  0.00000000D+00  0.00000000D+00 -0.00000000D+00 -0.00000000D+00
 -0.00000000D+00 -0.00000000D+00 -0.00000000D+00  0.00000000D+00 -0.00000000D+00
  0.00000000D+00  0.39000997D-06 -0.44144264D-07 -0.00000000D+00 -0.53390503D-05
  0.60431396D-06  0.00000000D+00  0.79769263D-04 -0.90288842D-05 -0.00000000D+00
  0.27208353D-03 -0.30796459D-04  0.00000000D+00 -0.00000000D+00 -0.00000000D+00
  0.28728245D-08 -0.32516759D-09 -0.00000000D+00 -0.00000000D+00 -0.00000000D+00
 -0.00000000D+00  0.36606192D-07 -0.41433586D-08  0.00000000D+00 -0.00000000D+00
  0.00000000D+00  0.00000000D+00 -0.00000000D+00 -0.00000000D+00 -0.00000000D+00
  0.00000000D+00 -0.00000000D+00  0.00000000D+00  0.00000000D+00 -0.00000000D+00
  0.39000997D-06 -0.44144264D-07  0.00000000D+00 -0.53390503D-05  0.60431396D-06
 -0.00000000D+00  0.79769263D-04 -0.90288842D-05  0.00000000D+00  0.27208353D-03
 -0.30796459D-04  0.00000000D+00  0.00000000D+00  0.00000000D+00 -0.28728245D-08
  0.32516759D-09  0.00000000D+00  0.00000000D+00  0.00000000D+00  0.00000000D+00
 -0.36606192D-07  0.41433586D-08 -0.00000000D+00
MO    6     MO 0.0        OCC NO =    0.0000000  ORB. ENERGY =    0.007486
 -0.00000000D+00  0.00000000D+00 -0.00000000D+00  0.00000000D+00  0.00000000D+00
  0.00000000D+00  0.00000000D+00 -0.00000000D+00  0.00000000D+00 -0.00000000D+00
 -0.00000000D+00 -0.27259959D-04  0.20697518D-04  0.00000000D+00  0.21942817D-04
 -0.16660402D-04 -0.00000000D+00 -0.53010028D-04  0.40248631D-04 -0.00000000D+00
 -0.49315691D-03  0.37443653D-03  0.00000000D+00  0.00000000D+00  0.00000000D+00
 -0.82193463D-07  0.62406578D-07 -0.00000000D+00  0.00000000D+00  0.00000000D+00
  0.00000000D+00  0.14903302D-06 -0.11315547D-06  0.00000000D+00  0.00000000D+00
 -0.00000000D+00  0.00000000D+00 -0.00000000D+00  0.00000000D+00 -0.00000000D+00
 -0.00000000D+00  0.00000000D+00 -0.00000000D+00  0.00000000D+00 -0.00000000D+00
  0.27259959D-04 -0.20697518D-04  0.00000000D+00 -0.21942817D-04  0.16660402D-04
 -0.00000000D+00  0.53010028D-04 -0.40248631D-04  0.00000000D+00  0.49315691D-03
 -0.37443653D-03  0.00000000D+00 -0.00000000D+00 -0.00000000D+00 -0.82193463D-07
  0.62406578D-07  0.00000000D+00 -0.00000000D+00 -0.00000000D+00 -0.00000000D+00
  0.14903302D-06 -0.11315547D-06 -0.00000000D+00
MO    7     MO 0.0        OCC NO =    0.0000000  ORB. ENERGY =    0.007486
  0.00000000D+00 -0.00000000D+00  0.00000000D+00 -0.00000000D+00 -0.00000000D+00
 -0.00000000D+00 -0.00000000D+00  0.00000000D+00 -0.00000000D+00  0.00000000D+00
  0.00000000D+00  0.20697518D-04  0.27259959D-04 -0.00000000D+00 -0.16660402D-04
 -0.21942817D-04  0.00000000D+00  0.40248631D-04  0.53010028D-04  0.00000000D+00
  0.37443653D-03  0.49315691D-03  0.00000000D+00  0.00000000D+00  0.00000000D+00
  0.62406578D-07  0.82193463D-07  0.00000000D+00 -0.00000000D+00 -0.00000000D+00
 -0.00000000D+00 -0.11315547D-06 -0.14903302D-06  0.00000000D+00 -0.00000000D+00
  0.00000000D+00 -0.00000000D+00  0.00000000D+00  0.00000000D+00  0.00000000D+00
  0.00000000D+00 -0.00000000D+00 -0.00000000D+00  0.00000000D+00  0.00000000D+00
 -0.20697518D-04 -0.27259959D-04 -0.00000000D+00  0.16660402D-04  0.21942817D-04
  0.00000000D+00 -0.40248631D-04 -0.53010028D-04  0.00000000D+00 -0.37443653D-03
 -0.49315691D-03  0.00000000D+00 -0.00000000D+00 -0.00000000D+00  0.62406578D-07
  0.82193463D-07 -0.00000000D+00  0.00000000D+00 -0.00000000D+00 -0.00000000D+00
 -0.11315547D-06 -0.14903302D-06 -0.00000000D+00
MO    8     MO 0.0        OCC NO =    0.0000000  ORB. ENERGY =    0.007959
 -0.14055486D-04  0.12387495D-04  0.14397788D-01  0.57629639D-03 -0.98405199D-02
 -0.13054681D-02 -0.80756649D-02  0.12465076D-01  0.10457906D-02  0.23836146D-03
  0.16866061D-05  0.00000000D+00  0.00000000D+00 -0.14217283D-05 -0.00000000D+00
 -0.00000000D+00  0.29897349D-03  0.00000000D+00  0.00000000D+00  0.94249563D-04
 -0.00000000D+00 -0.00000000D+00  0.16569460D-07  0.31656497D-07  0.31656497D-07
  0.00000000D+00  0.00000000D+00  0.00000000D+00  0.30498001D-06  0.12738233D-06
  0.12738233D-06 -0.00000000D+00 -0.00000000D+00 -0.00000000D+00  0.14055486D-04
 -0.12387495D-04 -0.14397788D-01 -0.57629639D-03  0.98405199D-02  0.13054681D-02
  0.80756649D-02 -0.12465076D-01 -0.10457906D-02 -0.23836146D-03  0.16866061D-05
 -0.00000000D+00 -0.00000000D+00 -0.14217283D-05  0.00000000D+00  0.00000000D+00
  0.29897349D-03 -0.00000000D+00 -0.00000000D+00  0.94249563D-04  0.00000000D+00
  0.00000000D+00 -0.16569460D-07 -0.31656497D-07 -0.31656497D-07  0.00000000D+00
  0.00000000D+00 -0.00000000D+00 -0.30498001D-06 -0.12738233D-06 -0.12738233D-06
 -0.00000000D+00 -0.00000000D+00  0.00000000D+00
MO    9     MO 0.0        OCC NO =    0.0000000  ORB. ENERGY =    0.008316
 -0.62571592D-04  0.16197004D-03  0.47933652D-03  0.23643499D-03  0.34070720D-03
 -0.10633176D-02  0.19726689D-03  0.28098215D-03  0.29553222D-03 -0.83034491D-04
  0.66391772D-05 -0.00000000D+00  0.00000000D+00 -0.86974029D-05  0.00000000D+00
 -0.00000000D+00  0.26039562D-04 -0.00000000D+00  0.00000000D+00 -0.57355991D-03
  0.00000000D+00 -0.00000000D+00  0.19274763D-07 -0.13665982D-08 -0.13665982D-08
 -0.00000000D+00  0.00000000D+00  0.00000000D+00 -0.95314948D-07 -0.27441703D-07
 -0.27441703D-07  0.00000000D+00 -0.00000000D+00 -0.00000000D+00 -0.62571592D-04
  0.16197004D-03  0.47933652D-03  0.23643499D-03  0.34070720D-03 -0.10633176D-02
  0.19726689D-03  0.28098215D-03  0.29553222D-03 -0.83034491D-04 -0.66391772D-05
  0.00000000D+00 -0.00000000D+00  0.86974029D-05 -0.00000000D+00  0.00000000D+00
 -0.26039562D-04 -0.00000000D+00 -0.00000000D+00  0.57355991D-03 -0.00000000D+00
  0.00000000D+00  0.19274763D-07 -0.13665982D-08 -0.13665982D-08 -0.00000000D+00
  0.00000000D+00 -0.00000000D+00 -0.95314948D-07 -0.27441703D-07 -0.27441703D-07
  0.00000000D+00 -0.00000000D+00  0.00000000D+00
MO   10     MO 0.0        OCC NO =    0.0000000  ORB. ENERGY =    0.011793
 -0.00000000D+00  0.00000000D+00  0.00000000D+00 -0.00000000D+00  0.00000000D+00
  0.00000000D+00  0.00000000D+00 -0.00000000D+00  0.00000000D+00 -0.00000000D+00
  0.00000000D+00  0.71188358D-06 -0.42871301D-06 -0.00000000D+00 -0.99036182D-05
  0.59641906D-05  0.00000000D+00  0.17535872D-03 -0.10560513D-03  0.00000000D+00
 -0.69382864D-03  0.41783985D-03  0.00000000D+00  0.00000000D+00  0.00000000D+00
  0.38714503D-08 -0.23314791D-08  0.00000000D+00  0.00000000D+00 -0.00000000D+00
  0.00000000D+00  0.75269169D-07 -0.45328846D-07 -0.00000000D+00 -0.00000000D+00
  0.00000000D+00 -0.00000000D+00 -0.00000000D+00  0.00000000D+00 -0.00000000D+00
  0.00000000D+00 -0.00000000D+00  0.00000000D+00  0.00000000D+00 -0.00000000D+00
  0.71188358D-06 -0.42871301D-06  0.00000000D+00 -0.99036182D-05  0.59641906D-05
  0.00000000D+00  0.17535872D-03 -0.10560513D-03  0.00000000D+00 -0.69382864D-03
  0.41783985D-03  0.00000000D+00 -0.00000000D+00 -0.00000000D+00 -0.38714503D-08
  0.23314791D-08 -0.00000000D+00 -0.00000000D+00 -0.00000000D+00 -0.00000000D+00
 -0.75269169D-07  0.45328846D-07  0.00000000D+00
MO   11     MO 0.0        OCC NO =    0.0000000  ORB. ENERGY =    0.011793
 -0.00000000D+00 -0.00000000D+00  0.00000000D+00 -0.00000000D+00  0.00000000D+00
  0.00000000D+00  0.00000000D+00 -0.00000000D+00 -0.00000000D+00  0.00000000D+00
 -0.00000000D+00  0.42871301D-06  0.71188358D-06  0.00000000D+00 -0.59641906D-05
 -0.99036182D-05  0.00000000D+00  0.10560513D-03  0.17535872D-03  0.00000000D+00
 -0.41783985D-03 -0.69382864D-03 -0.00000000D+00  0.00000000D+00  0.00000000D+00
  0.23314791D-08  0.38714503D-08 -0.00000000D+00  0.00000000D+00  0.00000000D+00
  0.00000000D+00  0.45328846D-07  0.75269169D-07  0.00000000D+00 -0.00000000D+00
 -0.00000000D+00 -0.00000000D+00  0.00000000D+00 -0.00000000D+00 -0.00000000D+00
 -0.00000000D+00  0.00000000D+00  0.00000000D+00 -0.00000000D+00  0.00000000D+00
  0.42871301D-06  0.71188358D-06 -0.00000000D+00 -0.59641906D-05 -0.99036182D-05
  0.00000000D+00  0.10560513D-03  0.17535872D-03  0.00000000D+00 -0.41783985D-03
 -0.69382864D-03 -0.00000000D+00 -0.00000000D+00 -0.00000000D+00 -0.23314791D-08
 -0.38714503D-08  0.00000000D+00  0.00000000D+00  0.00000000D+00  0.00000000D+00
 -0.45328846D-07 -0.75269169D-07 -0.00000000D+00
MO   12     MO 0.0        OCC NO =    0.0000000  ORB. ENERGY =    0.012017
  0.11639357D-04 -0.16058057D-04 -0.13031905D-01  0.60248416D-03 -0.43702751D-03
 -0.32504465D-02 -0.13349849D-02  0.36544980D-02  0.10461023D-02 -0.16892326D-03
 -0.13976613D-05 -0.00000000D+00 -0.00000000D+00  0.16421443D-05  0.00000000D+00
  0.00000000D+00 -0.27689590D-03  0.00000000D+00  0.00000000D+00 -0.11716512D-02
 -0.00000000D+00 -0.00000000D+00 -0.13489996D-07 -0.26693492D-07 -0.26693492D-07
 -0.00000000D+00 -0.00000000D+00 -0.00000000D+00 -0.24771487D-06 -0.95079974D-07
 -0.95079974D-07  0.00000000D+00  0.00000000D+00  0.00000000D+00 -0.11639357D-04
  0.16058057D-04  0.13031905D-01 -0.60248416D-03  0.43702751D-03  0.32504465D-02
  0.13349849D-02 -0.36544980D-02 -0.10461023D-02  0.16892326D-03 -0.13976613D-05
  0.00000000D+00  0.00000000D+00  0.16421443D-05 -0.00000000D+00 -0.00000000D+00
 -0.27689590D-03  0.00000000D+00  0.00000000D+00 -0.11716512D-02 -0.00000000D+00
 -0.00000000D+00  0.13489996D-07  0.26693492D-07  0.26693492D-07 -0.00000000D+00
 -0.00000000D+00  0.00000000D+00  0.24771487D-06  0.95079974D-07  0.95079974D-07
  0.00000000D+00  0.00000000D+00 -0.00000000D+00
MO   13     MO 0.0        OCC NO =    0.0000000  ORB. ENERGY =    0.012188
  0.36149142D-03 -0.83381602D-03 -0.79962443D-03  0.14131099D-01 -0.21479687D-01
  0.18631665D-02 -0.13244431D-01  0.18290378D-01  0.57385655D-03  0.66593401D-03
 -0.38873086D-04 -0.00000000D+00 -0.00000000D+00  0.30099848D-04  0.00000000D+00
  0.00000000D+00 -0.13452706D-03 -0.00000000D+00 -0.00000000D+00  0.13696612D-03
 -0.00000000D+00  0.00000000D+00 -0.11186738D-06  0.77301619D-08  0.77301619D-08
 -0.00000000D+00 -0.00000000D+00 -0.00000000D+00  0.37658149D-06  0.18732371D-06
  0.18732371D-06  0.00000000D+00  0.00000000D+00  0.00000000D+00  0.36149142D-03
 -0.83381602D-03 -0.79962443D-03  0.14131099D-01 -0.21479687D-01  0.18631665D-02
 -0.13244431D-01  0.18290378D-01  0.57385655D-03  0.66593401D-03  0.38873086D-04
  0.00000000D+00  0.00000000D+00 -0.30099848D-04 -0.00000000D+00 -0.00000000D+00
  0.13452706D-03  0.00000000D+00  0.00000000D+00 -0.13696612D-03 -0.00000000D+00
 -0.00000000D+00 -0.11186738D-06  0.77301619D-08  0.77301619D-08 -0.00000000D+00
 -0.00000000D+00  0.00000000D+00  0.37658149D-06  0.18732371D-06  0.18732371D-06
  0.00000000D+00  0.00000000D+00 -0.00000000D+00
MO   14     MO 0.0        OCC NO =    0.0000000  ORB. ENERGY =    0.017333
  0.71227927D-05 -0.21579708D-04 -0.19297378D-01  0.26901556D-01 -0.27428801D-01
  0.53982793D-02 -0.12220647D-01  0.15078907D-01 -0.36384947D-03  0.82238611D-03
 -0.87061420D-06 -0.00000000D+00  0.00000000D+00  0.26607128D-06  0.00000000D+00
 -0.00000000D+00 -0.37000530D-03 -0.00000000D+00  0.00000000D+00  0.51778353D-03
  0.00000000D+00 -0.00000000D+00 -0.46068309D-08 -0.18372639D-07 -0.18372639D-07
 -0.00000000D+00  0.00000000D+00 -0.00000000D+00 -0.19562110D-06 -0.33539489D-07
 -0.33539489D-07  0.00000000D+00 -0.00000000D+00  0.00000000D+00 -0.71227927D-05
  0.21579708D-04  0.19297378D-01 -0.26901556D-01  0.27428801D-01 -0.53982793D-02
  0.12220647D-01 -0.15078907D-01  0.36384947D-03 -0.82238611D-03 -0.87061420D-06
  0.00000000D+00 -0.00000000D+00  0.26607128D-06 -0.00000000D+00  0.00000000D+00
 -0.37000530D-03  0.00000000D+00 -0.00000000D+00  0.51778353D-03 -0.00000000D+00
  0.00000000D+00  0.46068309D-08  0.18372639D-07  0.18372639D-07 -0.00000000D+00
  0.00000000D+00  0.00000000D+00  0.19562110D-06  0.33539489D-07  0.33539489D-07
  0.00000000D+00 -0.00000000D+00 -0.00000000D+00
MO   15     MO 0.0        OCC NO =    0.0000000  ORB. ENERGY =    0.017557
 -0.00000000D+00  0.00000000D+00  0.00000000D+00 -0.00000000D+00  0.00000000D+00
 -0.00000000D+00  0.00000000D+00 -0.00000000D+00 -0.00000000D+00  0.00000000D+00
 -0.00000000D+00 -0.18456847D-03  0.38465437D-05  0.00000000D+00  0.15608800D-03
 -0.32529894D-05  0.00000000D+00 -0.43475582D-03  0.90606343D-05 -0.00000000D+00
  0.82319451D-03 -0.17155987D-04 -0.00000000D+00  0.00000000D+00  0.00000000D+00
 -0.55733097D-06  0.11615189D-07 -0.00000000D+00  0.00000000D+00  0.00000000D+00
  0.00000000D+00  0.10837907D-05 -0.22587007D-07  0.00000000D+00  0.00000000D+00
 -0.00000000D+00 -0.00000000D+00  0.00000000D+00 -0.00000000D+00  0.00000000D+00
 -0.00000000D+00  0.00000000D+00 -0.00000000D+00  0.00000000D+00  0.00000000D+00
  0.18456847D-03 -0.38465437D-05  0.00000000D+00 -0.15608800D-03  0.32529894D-05
  0.00000000D+00  0.43475582D-03 -0.90606343D-05 -0.00000000D+00 -0.82319451D-03
  0.17155987D-04 -0.00000000D+00 -0.00000000D+00 -0.00000000D+00 -0.55733097D-06
  0.11615189D-07  0.00000000D+00 -0.00000000D+00  0.00000000D+00  0.00000000D+00
  0.10837907D-05 -0.22587007D-07 -0.00000000D+00
MO   16     MO 0.0        OCC NO =    0.0000000  ORB. ENERGY =    0.017557
  0.00000000D+00 -0.00000000D+00  0.00000000D+00 -0.00000000D+00  0.00000000D+00
 -0.00000000D+00  0.00000000D+00 -0.00000000D+00  0.00000000D+00 -0.00000000D+00
  0.00000000D+00  0.38465437D-05  0.18456847D-03 -0.00000000D+00 -0.32529894D-05
 -0.15608800D-03  0.00000000D+00  0.90606343D-05  0.43475582D-03 -0.00000000D+00
 -0.17155987D-04 -0.82319451D-03  0.00000000D+00  0.00000000D+00  0.00000000D+00
  0.11615189D-07  0.55733097D-06 -0.00000000D+00 -0.00000000D+00 -0.00000000D+00
 -0.00000000D+00 -0.22587007D-07 -0.10837907D-05  0.00000000D+00 -0.00000000D+00
  0.00000000D+00 -0.00000000D+00  0.00000000D+00 -0.00000000D+00  0.00000000D+00
 -0.00000000D+00  0.00000000D+00 -0.00000000D+00  0.00000000D+00 -0.00000000D+00
 -0.38465437D-05 -0.18456847D-03  0.00000000D+00  0.32529894D-05  0.15608800D-03
  0.00000000D+00 -0.90606343D-05 -0.43475582D-03 -0.00000000D+00  0.17155987D-04
  0.82319451D-03  0.00000000D+00 -0.00000000D+00 -0.00000000D+00  0.11615189D-07
  0.55733097D-06  0.00000000D+00 -0.00000000D+00 -0.00000000D+00 -0.00000000D+00
 -0.22587007D-07 -0.10837907D-05 -0.00000000D+00
MO   17     MO 0.0        OCC NO =    0.0000000  ORB. ENERGY =    0.020613
  0.14852090D-02 -0.30965991D-02  0.65536215D-02 -0.10147560D-01  0.94384241D-02
  0.43892035D-03  0.41394451D-02 -0.62625330D-02 -0.50431833D-03 -0.13128474D-03
 -0.11640116D-03 -0.00000000D+00 -0.00000000D+00  0.12793758D-03  0.00000000D+00
  0.00000000D+00 -0.30821976D-03  0.00000000D+00  0.00000000D+00  0.56285120D-03
 -0.00000000D+00 -0.00000000D+00 -0.35131427D-06  0.94365707D-08  0.94365707D-08
 -0.00000000D+00 -0.00000000D+00 -0.00000000D+00  0.13046650D-05  0.33701862D-06
  0.33701862D-06  0.00000000D+00  0.00000000D+00  0.00000000D+00  0.14852090D-02
 -0.30965991D-02  0.65536215D-02 -0.10147560D-01  0.94384241D-02  0.43892035D-03
  0.41394451D-02 -0.62625330D-02 -0.50431833D-03 -0.13128474D-03  0.11640116D-03
  0.00000000D+00  0.00000000D+00 -0.12793758D-03 -0.00000000D+00 -0.00000000D+00
  0.30821976D-03 -0.00000000D+00 -0.00000000D+00 -0.56285120D-03  0.00000000D+00
  0.00000000D+00 -0.35131427D-06  0.94365707D-08  0.94365707D-08 -0.00000000D+00
 -0.00000000D+00  0.00000000D+00  0.13046650D-05  0.33701862D-06  0.33701862D-06
  0.00000000D+00  0.00000000D+00 -0.00000000D+00
MO   18     MO 0.0        OCC NO =    0.0000000  ORB. ENERGY =    0.024088
 -0.50812892D-04 -0.49683030D-03 -0.24891530D-01  0.77540356D-02 -0.57500464D-02
  0.31786037D-02 -0.18028053D-02  0.10447694D-02 -0.66835973D-03  0.26381305D-03
  0.57675052D-05 -0.00000000D+00 -0.00000000D+00  0.45025304D-04  0.00000000D+00
  0.00000000D+00 -0.11939806D-02 -0.00000000D+00 -0.00000000D+00  0.10876370D-02
 -0.00000000D+00 -0.00000000D+00  0.11831328D-06  0.59009765D-07  0.59009765D-07
 -0.00000000D+00 -0.00000000D+00 -0.00000000D+00  0.13251571D-05  0.17419087D-05
  0.17419087D-05  0.00000000D+00  0.00000000D+00  0.00000000D+00  0.50812892D-04
  0.49683030D-03  0.24891530D-01 -0.77540356D-02  0.57500464D-02 -0.31786037D-02
  0.18028053D-02 -0.10447694D-02  0.66835973D-03 -0.26381305D-03  0.57675052D-05
  0.00000000D+00  0.00000000D+00  0.45025304D-04 -0.00000000D+00 -0.00000000D+00
 -0.11939806D-02  0.00000000D+00  0.00000000D+00  0.10876370D-02  0.00000000D+00
 -0.00000000D+00 -0.11831328D-06 -0.59009765D-07 -0.59009765D-07 -0.00000000D+00
 -0.00000000D+00  0.00000000D+00 -0.13251571D-05 -0.17419087D-05 -0.17419087D-05
  0.00000000D+00  0.00000000D+00 -0.00000000D+00
MO   19     MO 0.0        OCC NO =    0.0000000  ORB. ENERGY =    0.028534
 -0.35177454D-02 -0.32190525D-02  0.17559911D-01 -0.18058182D-01  0.85220071D-02
  0.62816834D-02  0.19419261D-02 -0.61664935D-02 -0.20165044D-02  0.35618019D-03
  0.71240300D-04  0.00000000D+00  0.00000000D+00 -0.17381649D-03 -0.00000000D+00
 -0.00000000D+00  0.28716978D-04  0.00000000D+00  0.00000000D+00 -0.48169409D-04
 -0.00000000D+00 -0.00000000D+00  0.30708581D-06  0.83653757D-07  0.83653757D-07
  0.00000000D+00  0.00000000D+00  0.00000000D+00  0.31836874D-06  0.18245247D-05
  0.18245247D-05 -0.00000000D+00 -0.00000000D+00 -0.00000000D+00 -0.35177454D-02
 -0.32190525D-02  0.17559911D-01 -0.18058182D-01  0.85220071D-02  0.62816834D-02
  0.19419261D-02 -0.61664935D-02 -0.20165044D-02  0.35618019D-03 -0.71240300D-04
 -0.00000000D+00 -0.00000000D+00  0.17381649D-03  0.00000000D+00  0.00000000D+00
 -0.28716978D-04 -0.00000000D+00 -0.00000000D+00  0.48169409D-04  0.00000000D+00
  0.00000000D+00  0.30708581D-06  0.83653757D-07  0.83653757D-07  0.00000000D+00
  0.00000000D+00 -0.00000000D+00  0.31836874D-06  0.18245247D-05  0.18245247D-05
 -0.00000000D+00 -0.00000000D+00  0.00000000D+00
MO   20     MO 0.0        OCC NO =    0.0000000  ORB. ENERGY =    0.037894
 -0.31415730D-03 -0.54974065D-03  0.15537905D-01 -0.10430528D-01  0.30875220D-03
  0.12484919D-01 -0.15880191D-02 -0.38625502D-02 -0.30845790D-02  0.79853338D-03
  0.35857656D-04  0.00000000D+00  0.00000000D+00  0.24368078D-04 -0.00000000D+00
 -0.00000000D+00 -0.25397490D-03  0.00000000D+00  0.00000000D+00  0.27967420D-03
 -0.00000000D+00 -0.00000000D+00  0.66015078D-06  0.64847755D-06  0.64847755D-06
  0.00000000D+00  0.00000000D+00  0.00000000D+00  0.53051494D-05  0.50608010D-05
  0.50608010D-05 -0.00000000D+00 -0.00000000D+00 -0.00000000D+00  0.31415730D-03
  0.54974065D-03 -0.15537905D-01  0.10430528D-01 -0.30875220D-03 -0.12484919D-01
  0.15880191D-02  0.38625502D-02  0.30845790D-02 -0.79853338D-03  0.35857656D-04
 -0.00000000D+00 -0.00000000D+00  0.24368078D-04  0.00000000D+00  0.00000000D+00
 -0.25397490D-03 -0.00000000D+00 -0.00000000D+00  0.27967420D-03  0.00000000D+00
  0.00000000D+00 -0.66015078D-06 -0.64847755D-06 -0.64847755D-06  0.00000000D+00
  0.00000000D+00 -0.00000000D+00 -0.53051494D-05 -0.50608010D-05 -0.50608010D-05
 -0.00000000D+00 -0.00000000D+00  0.00000000D+00
MO   21     MO 0.0        OCC NO =    0.0000000  ORB. ENERGY =    0.038998
 -0.00000000D+00  0.00000000D+00  0.00000000D+00 -0.00000000D+00 -0.00000000D+00
  0.00000000D+00 -0.00000000D+00 -0.00000000D+00 -0.00000000D+00  0.00000000D+00
  0.00000000D+00 -0.00000000D+00  0.00000000D+00 -0.00000000D+00  0.00000000D+00
 -0.00000000D+00 -0.00000000D+00  0.00000000D+00  0.00000000D+00  0.00000000D+00
 -0.00000000D+00 -0.00000000D+00  0.00000000D+00  0.43481516D-07 -0.43481516D-07
 -0.00000000D+00  0.00000000D+00 -0.32546211D-07  0.00000000D+00 -0.59178374D-06
  0.59178374D-06  0.00000000D+00 -0.00000000D+00  0.44295418D-06 -0.00000000D+00
  0.00000000D+00 -0.00000000D+00  0.00000000D+00 -0.00000000D+00 -0.00000000D+00
 -0.00000000D+00  0.00000000D+00  0.00000000D+00 -0.00000000D+00 -0.00000000D+00
  0.00000000D+00 -0.00000000D+00  0.00000000D+00 -0.00000000D+00  0.00000000D+00
 -0.00000000D+00 -0.00000000D+00 -0.00000000D+00  0.00000000D+00  0.00000000D+00
  0.00000000D+00  0.00000000D+00  0.43481516D-07 -0.43481516D-07 -0.00000000D+00
  0.00000000D+00 -0.32546211D-07 -0.00000000D+00 -0.59178374D-06  0.59178374D-06
  0.00000000D+00 -0.00000000D+00  0.44295418D-06
MO   22     MO 0.0        OCC NO =    0.0000000  ORB. ENERGY =    0.038998
  0.00000000D+00 -0.00000000D+00  0.00000000D+00 -0.00000000D+00 -0.00000000D+00
  0.00000000D+00 -0.00000000D+00 -0.00000000D+00 -0.00000000D+00  0.00000000D+00
 -0.00000000D+00  0.00000000D+00 -0.00000000D+00  0.00000000D+00 -0.00000000D+00
  0.00000000D+00 -0.00000000D+00  0.00000000D+00 -0.00000000D+00  0.00000000D+00
 -0.00000000D+00  0.00000000D+00 -0.00000000D+00  0.16273105D-07 -0.16273105D-07
  0.00000000D+00 -0.00000000D+00  0.86963033D-07  0.00000000D+00 -0.22147709D-06
  0.22147709D-06 -0.00000000D+00  0.00000000D+00 -0.11835675D-05  0.00000000D+00
 -0.00000000D+00 -0.00000000D+00  0.00000000D+00 -0.00000000D+00 -0.00000000D+00
 -0.00000000D+00  0.00000000D+00 -0.00000000D+00  0.00000000D+00  0.00000000D+00
 -0.00000000D+00  0.00000000D+00 -0.00000000D+00  0.00000000D+00 -0.00000000D+00
 -0.00000000D+00 -0.00000000D+00  0.00000000D+00  0.00000000D+00  0.00000000D+00
 -0.00000000D+00 -0.00000000D+00  0.16273105D-07 -0.16273105D-07  0.00000000D+00
 -0.00000000D+00  0.86963033D-07  0.00000000D+00 -0.22147709D-06  0.22147709D-06
 -0.00000000D+00  0.00000000D+00 -0.11835675D-05
MO   23     MO 0.0        OCC NO =    0.0000000  ORB. ENERGY =    0.042458
 -0.20268603D-03  0.72637554D-03 -0.13347682D-02  0.17126145D-02  0.35557633D-02
 -0.98220008D-02  0.21467492D-02  0.16020111D-02  0.22233525D-02 -0.62892320D-03
  0.21371077D-04  0.00000000D+00  0.00000000D+00 -0.98674812D-04 -0.00000000D+00
 -0.00000000D+00  0.13174518D-03  0.00000000D+00  0.00000000D+00 -0.15192571D-03
 -0.00000000D+00 -0.00000000D+00  0.65292443D-06  0.61200223D-06  0.61200223D-06
  0.00000000D+00  0.00000000D+00  0.00000000D+00  0.56451664D-06  0.10175877D-05
  0.10175877D-05 -0.00000000D+00 -0.00000000D+00 -0.00000000D+00  0.20268603D-03
 -0.72637554D-03  0.13347682D-02 -0.17126145D-02 -0.35557633D-02  0.98220008D-02
 -0.21467492D-02 -0.16020111D-02 -0.22233525D-02  0.62892320D-03  0.21371077D-04
 -0.00000000D+00 -0.00000000D+00 -0.98674812D-04  0.00000000D+00  0.00000000D+00
  0.13174518D-03 -0.00000000D+00 -0.00000000D+00 -0.15192571D-03  0.00000000D+00
  0.00000000D+00 -0.65292443D-06 -0.61200223D-06 -0.61200223D-06  0.00000000D+00
  0.00000000D+00 -0.00000000D+00 -0.56451664D-06 -0.10175877D-05 -0.10175877D-05
 -0.00000000D+00 -0.00000000D+00  0.00000000D+00
MO   24     MO 0.0        OCC NO =    0.0000000  ORB. ENERGY =    0.043134
  0.00000000D+00 -0.00000000D+00  0.00000000D+00 -0.00000000D+00 -0.00000000D+00
  0.00000000D+00 -0.00000000D+00 -0.00000000D+00 -0.00000000D+00  0.00000000D+00
 -0.00000000D+00  0.74532187D-06  0.31620076D-06  0.00000000D+00 -0.42542238D-04
 -0.18048429D-04 -0.00000000D+00  0.20074039D-03  0.85163564D-04  0.00000000D+00
 -0.31486530D-03 -0.13358074D-03 -0.00000000D+00 -0.00000000D+00 -0.00000000D+00
  0.37096642D-06  0.15738149D-06 -0.00000000D+00  0.00000000D+00 -0.00000000D+00
 -0.00000000D+00 -0.19477454D-05 -0.82632566D-06 -0.00000000D+00  0.00000000D+00
 -0.00000000D+00  0.00000000D+00 -0.00000000D+00 -0.00000000D+00  0.00000000D+00
 -0.00000000D+00 -0.00000000D+00 -0.00000000D+00  0.00000000D+00  0.00000000D+00
  0.74532201D-06  0.31620076D-06 -0.00000000D+00 -0.42542238D-04 -0.18048429D-04