[Molden Format]
[Atoms] AU
E+       1       4     0.00000000     0.00000000     0.00000000
E+       2       4     8.20000000     0.00000000     0.00000000
[GTO]
  1 0
s  1 1.00
   1.0000000000E-04   1.0000000000E+00
s  1 1.00
   3.0000000000E-04   1.0000000000E+00
s  1 1.00
   9.0000000000E-04   1.0000000000E+00
s  1 1.00
   2.7000000000E-03   1.0000000000E+00
s  1 1.00
   8.1000000000E-03   1.0000000000E+00
s  1 1.00
   2.4300000000E-02   1.0000000000E+00
s  1 1.00
   7.2900000000E-02   1.0000000000E+00
s  1 1.00
   2.1870000000E-01   1.0000000000E+00
s  1 1.00
   6.5610000000E-01   1.0000000000E+00
s  1 1.00
   1.9683000000E+00   1.0000000000E+00
p  1 1.00
   1.0000000000E-04   1.0000000000E+00
p  1 1.00
   3.0000000000E-04   1.0000000000E+00
p  1 1.00
   9.0000000000E-04   1.0000000000E+00
p  1 1.00
   2.7000000000E-03   1.0000000000E+00
d  1 1.00
   1.0000000000E-04   1.0000000000E+00
d  1 1.00
   3.0000000000E-04   1.0000000000E+00
 
  2 0
s  1 1.00
   1.0000000000E-04   1.0000000000E+00
s  1 1.00
   3.0000000000E-04   1.0000000000E+00
s  1 1.00
   9.0000000000E-04   1.0000000000E+00
s  1 1.00
   2.7000000000E-03   1.0000000000E+00
s  1 1.00
   8.1000000000E-03   1.0000000000E+00
s  1 1.00
   2.4300000000E-02   1.0000000000E+00
s  1 1.00
   7.2900000000E-02   1.0000000000E+00
s  1 1.00
   2.1870000000E-01   1.0000000000E+00
s  1 1.00
   6.5610000000E-01   1.0000000000E+00
s  1 1.00
   1.9683000000E+00   1.0000000000E+00
p  1 1.00
   1.0000000000E-04   1.0000000000E+00
p  1 1.00
   3.0000000000E-04   1.0000000000E+00
p  1 1.00
   9.0000000000E-04   1.0000000000E+00
p  1 1.00
   2.7000000000E-03   1.0000000000E+00
d  1 1.00
   1.0000000000E-04   1.0000000000E+00
d  1 1.00
   3.0000000000E-04   1.0000000000E+00
 
 
[MO]
Ene=    -1.32177E-02
Spin= Alpha
Occup=   1.0000000000
   1       0.00112589
   2      -0.00318048
   3       0.00225004
   4       0.06855675
   5       0.17782704
   6       0.29313409
   7       0.15452556
   8      -0.12908865
   9      -0.00953304
  10       0.00022268
  11       0.00007213
  12       0.00000000
  13       0.00000000
  14      -0.00034746
  15      -0.00000000
  16       0.00000000
  17      -0.03434233
  18      -0.00000000
  19      -0.00000000
  20       0.03773288
  21       0.00000000
  22      -0.00000000
  23       0.00042133
  24      -0.00049615
  25      -0.00049615
  26       0.00000000
  27       0.00000000
  28      -0.00000000
  29      -0.00169397
  30       0.00090608
  31       0.00090608
  32      -0.00000000
  33      -0.00000000
  34       0.00000000
  35       0.00112589
  36      -0.00318048
  37       0.00225005
  38       0.06855675
  39       0.17782704
  40       0.29313409
  41       0.15452556
  42      -0.12908865
  43      -0.00953304
  44       0.00022268
  45      -0.00007213
  46      -0.00000000
  47      -0.00000000
  48       0.00034746
  49       0.00000000
  50       0.00000000
  51       0.03434233
  52       0.00000000
  53       0.00000000
  54      -0.03773288
  55      -0.00000000
  56       0.00000000
  57       0.00042133
  58      -0.00049615
  59      -0.00049615
  60      -0.00000000
  61      -0.00000000
  62       0.00000000
  63      -0.00169397
  64       0.00090608
  65       0.00090608
  66       0.00000000
  67       0.00000000
  68      -0.00000000
Ene=     2.31398E-03
Spin= Alpha
Occup=   0.0000000000
   1      -0.15147969
   2      -0.32425580
   3       1.14847699
   4      -0.60851061
   5       0.13230247
   6      -0.12620631
   7      -0.00123657
   8       0.01368330
   9       0.00313658
  10      -0.00032093
  11      -0.01357039
  12      -0.00000000
  13      -0.00000000
  14      -0.05827504
  15      -0.00000000
  16       0.00000000
  17       0.08063074
  18      -0.00000000
  19       0.00000000
  20       0.01103670
  21      -0.00000000
  22       0.00000000
  23       0.01997913
  24       0.02104103
  25       0.02104103
  26      -0.00000000
  27       0.00000000
  28       0.00000000
  29       0.09368545
  30       0.09979759
  31       0.09979759
  32      -0.00000000
  33       0.00000000
  34      -0.00000000
  35      -0.15147969
  36      -0.32425580
  37       1.14847700
  38      -0.60851061
  39       0.13230247
  40      -0.12620631
  41      -0.00123657
  42       0.01368330
  43       0.00313658
  44      -0.00032093
  45       0.01357039
  46       0.00000000
  47       0.00000000
  48       0.05827504
  49       0.00000000
  50      -0.00000000
  51      -0.08063074
  52       0.00000000
  53      -0.00000000
  54      -0.01103670
  55       0.00000000
  56      -0.00000000
  57       0.01997913
  58       0.02104103
  59       0.02104103
  60      -0.00000000
  61      -0.00000000
  62      -0.00000000
  63       0.09368545
  64       0.09979759
  65       0.09979759
  66      -0.00000000
  67      -0.00000000
  68       0.00000000
Ene=     2.70071E-03
Spin= Alpha
Occup=   0.0000000000
   1       0.00589575
   2       0.00194364
   3     -35.83013515
   4       3.12400704
   5      -0.34897604
   6      -0.04640702
   7      -0.04538873
   8       0.03422436
   9       0.00160527
  10       0.00008536
  11      -0.12514975
  12      -0.00000000
  13      -0.00000000
  14      -0.07885712
  15       0.00000000
  16       0.00000000
  17      -3.86210968
  18      -0.00000000
  19      -0.00000000
  20       0.65639439
  21       0.00000000
  22       0.00000000
  23      -0.51885170
  24      -0.61306969
  25      -0.61306969
  26      -0.00000000
  27      -0.00000000
  28      -0.00000000
  29      -1.09705279
  30      -0.94730980
  31      -0.94730980
  32       0.00000000
  33       0.00000000
  34       0.00000000
  35      -0.00589575
  36      -0.00194364
  37      35.83013515
  38      -3.12400704
  39       0.34897604
  40       0.04640702
  41       0.04538873
  42      -0.03422436
  43      -0.00160527
  44      -0.00008536
  45      -0.12514975
  46       0.00000000
  47       0.00000000
  48      -0.07885713
  49      -0.00000000
  50      -0.00000000
  51      -3.86210968
  52       0.00000000
  53       0.00000000
  54       0.65639439
  55      -0.00000000
  56      -0.00000000
  57       0.51885170
  58       0.61306969
  59       0.61306969
  60      -0.00000000
  61      -0.00000000
  62       0.00000000
  63       1.09705279
  64       0.94730980
  65       0.94730980
  66       0.00000000
  67       0.00000000
  68      -0.00000000
Ene=     3.48010E-03
Spin= Alpha
Occup=   0.0000000000
   1       0.00000000
   2      -0.00000000
   3      -0.00000000
   4       0.00000000
   5      -0.00000000
   6       0.00000000
   7      -0.00000000
   8      -0.00000000
   9      -0.00000000
  10       0.00000000
  11       0.00000000
  12      -0.02038780
  13       0.01769940
  14       0.00000000
  15       0.08991512
  16      -0.07805861
  17      -0.00000000
  18      -0.42831857
  19       0.37183904
  20       0.00000000
  21      -0.01290293
  22       0.01120151
  23       0.00000000
  24       0.00000000
  25       0.00000000
  26      -0.15232413
  27       0.13223816
  28       0.00000000
  29       0.00000000
  30       0.00000000
  31       0.00000000
  32       0.08779204
  33      -0.07621548
  34      -0.00000000
  35       0.00000000
  36       0.00000000
  37       0.00000000
  38      -0.00000000
  39       0.00000000
  40      -0.00000000
  41      -0.00000000
  42       0.00000000
  43       0.00000000
  44      -0.00000000
  45       0.00000000
  46      -0.02038780
  47       0.01769940
  48       0.00000000
  49       0.08991512
  50      -0.07805861
  51      -0.00000000
  52      -0.42831857
  53       0.37183904
  54       0.00000000
  55      -0.01290293
  56       0.01120151
  57      -0.00000000
  58      -0.00000000
  59      -0.00000000
  60       0.15232413
  61      -0.13223816
  62      -0.00000000
  63      -0.00000000
  64      -0.00000000
  65      -0.00000000
  66      -0.08779204
  67       0.07621548
  68       0.00000000
Ene=     3.48010E-03
Spin= Alpha
Occup=   0.0000000000
   1      -0.00000000
   2       0.00000000
   3      -0.00000000
   4      -0.00000000
   5       0.00000000
   6      -0.00000000
   7       0.00000000
   8      -0.00000000
   9       0.00000000
  10      -0.00000000
  11       0.00000000
  12       0.01769940
  13       0.02038780
  14       0.00000000
  15      -0.07805861
  16      -0.08991512
  17      -0.00000000
  18       0.37183904
  19       0.42831857
  20      -0.00000000
  21       0.01120151
  22       0.01290293
  23       0.00000000
  24       0.00000000
  25       0.00000000
  26       0.13223816
  27       0.15232413
  28      -0.00000000
  29       0.00000000
  30       0.00000000
  31       0.00000000
  32      -0.07621548
  33      -0.08779204
  34       0.00000000
  35       0.00000000
  36      -0.00000000
  37       0.00000000
  38       0.00000000
  39      -0.00000000
  40       0.00000000
  41      -0.00000000
  42       0.00000000
  43      -0.00000000
  44       0.00000000
  45      -0.00000000
  46       0.01769940
  47       0.02038780
  48       0.00000000
  49      -0.07805861
  50      -0.08991512
  51      -0.00000000
  52       0.37183904
  53       0.42831857
  54      -0.00000000
  55       0.01120151
  56       0.01290293
  57      -0.00000000
  58      -0.00000000
  59      -0.00000000
  60      -0.13223816
  61      -0.15232413
  62       0.00000000
  63      -0.00000000
  64      -0.00000000
  65      -0.00000000
  66       0.07621548
  67       0.08779204
  68      -0.00000000
Ene=     6.35986E-03
Spin= Alpha
Occup=   0.0000000000
   1       0.00673272
   2       0.00123910
   3     -48.62197300
   4       2.22660096
   5       0.22214426
   6       0.19631638
   7       0.05852224
   8      -0.05794676
   9      -0.00506200
  10       0.00018482
  11      -0.14184947
  12      -0.00000000
  13      -0.00000000
  14      -0.09641777
  15       0.00000001
  16       0.00000000
  17      -5.27284666
  18      -0.00000000
  19      -0.00000000
  20      -0.16050234
  21      -0.00000000
  22      -0.00000000
  23      -0.58183284
  24      -0.69847381
  25      -0.69847381
  26      -0.00000000
  27      -0.00000000
  28      -0.00000000
  29      -1.26558738
  30      -1.07935867
  31      -1.07935867
  32       0.00000000
  33       0.00000000
  34       0.00000000
  35      -0.00673272
  36      -0.00123910
  37      48.62197300
  38      -2.22660096
  39      -0.22214426
  40      -0.19631638
  41      -0.05852224
  42       0.05794676
  43       0.00506200
  44      -0.00018482
  45      -0.14184947
  46       0.00000000
  47       0.00000000
  48      -0.09641778
  49      -0.00000001
  50      -0.00000000
  51      -5.27284666
  52       0.00000000
  53       0.00000000
  54      -0.16050234
  55       0.00000000
  56       0.00000000
  57       0.58183285
  58       0.69847381
  59       0.69847381
  60      -0.00000000
  61      -0.00000000
  62       0.00000000
  63       1.26558738
  64       1.07935867
  65       1.07935867
  66       0.00000000
  67       0.00000000
  68      -0.00000000
Ene=     6.69991E-03
Spin= Alpha
Occup=   0.0000000000
   1       0.00000000
   2       0.00000000
   3       0.00000000
   4       0.00000000
   5       0.00000000
   6       0.00000000
   7       0.00000000
   8      -0.00000000
   9      -0.00000000
  10       0.00000000
  11      -0.00000000
  12       0.00090762
  13      -0.00021255
  14      -0.00000000
  15      -0.00240330
  16       0.00056282
  17       0.00000000
  18       3.50269463
  19      -0.82028430
  20       0.00000000
  21       0.70884740
  22      -0.16600259
  23      -0.00000000
  24      -0.00000000
  25      -0.00000000
  26      -0.03407203
  27       0.00797921
  28       0.00000000
  29      -0.00000000
  30      -0.00000000
  31      -0.00000000
  32       0.10078329
  33      -0.02360210
  34      -0.00000000
  35      -0.00000000
  36      -0.00000000
  37      -0.00000000
  38      -0.00000000
  39      -0.00000000
  40      -0.00000000
  41      -0.00000000
  42       0.00000000
  43       0.00000000
  44      -0.00000000
  45      -0.00000000
  46      -0.00090762
  47       0.00021255
  48      -0.00000000
  49       0.00240330
  50      -0.00056282
  51       0.00000000
  52      -3.50269463
  53       0.82028430
  54       0.00000000
  55      -0.70884740
  56       0.16600259
  57       0.00000000
  58       0.00000000
  59       0.00000000
  60      -0.03407203
  61       0.00797921
  62      -0.00000000
  63       0.00000000
  64       0.00000000
  65       0.00000000
  66       0.10078329
  67      -0.02360210
  68       0.00000000
Ene=     6.69991E-03
Spin= Alpha
Occup=   0.0000000000
   1       0.00000000
   2       0.00000000
   3       0.00000000
   4       0.00000000
   5       0.00000000
   6       0.00000000
   7       0.00000000
   8      -0.00000000
   9      -0.00000000
  10       0.00000000
  11      -0.00000000
  12       0.00021255
  13       0.00090762
  14      -0.00000000
  15      -0.00056282
  16      -0.00240330
  17       0.00000000
  18       0.82028430
  19       3.50269463
  20       0.00000000
  21       0.16600259
  22       0.70884740
  23      -0.00000000
  24      -0.00000000
  25      -0.00000000
  26      -0.00797921
  27      -0.03407203
  28      -0.00000000
  29      -0.00000000
  30      -0.00000000
  31      -0.00000000
  32       0.02360210
  33       0.10078329
  34       0.00000000
  35       0.00000000
  36      -0.00000000
  37      -0.00000000
  38      -0.00000000
  39      -0.00000000
  40      -0.00000000
  41      -0.00000000
  42       0.00000000
  43       0.00000000
  44      -0.00000000
  45      -0.00000000
  46      -0.00021255
  47      -0.00090762
  48      -0.00000000
  49       0.00056282
  50       0.00240330
  51       0.00000000
  52      -0.82028430
  53      -3.50269463
  54       0.00000000
  55      -0.16600259
  56      -0.70884740
  57       0.00000000
  58       0.00000000
  59       0.00000000
  60      -0.00797921
  61      -0.03407203
  62       0.00000000
  63       0.00000000
  64       0.00000000
  65       0.00000000
  66       0.02360210
  67       0.10078329
  68      -0.00000000
Ene=     6.73109E-03
Spin= Alpha
Occup=   0.0000000000
   1       0.25505586
   2       0.51355574
   3      -0.45049248
   4      -0.52859278
   5       0.01541835
   6       0.00101077
   7       0.00412591
   8      -0.00269303
   9       0.00003962
  10      -0.00003169
  11       0.02470509
  12      -0.00000000
  13       0.00000000
  14       0.08826463
  15       0.00000000
  16      -0.00000000
  17       2.98528718
  18      -0.00000000
  19      -0.00000000
  20       0.66513934
  21      -0.00000000
  22      -0.00000000
  23      -0.06789190
  24      -0.01987081
  25      -0.01987081
  26       0.00000000
  27       0.00000000
  28      -0.00000000
  29      -0.04989582
  30      -0.20808662
  31      -0.20808662
  32      -0.00000000
  33      -0.00000000
  34       0.00000000
  35       0.25505586
  36       0.51355574
  37      -0.45049249
  38      -0.52859278
  39       0.01541835
  40       0.00101077
  41       0.00412591
  42      -0.00269303
  43       0.00003962
  44      -0.00003169
  45      -0.02470509
  46       0.00000000
  47      -0.00000000
  48      -0.08826463
  49      -0.00000000
  50       0.00000000
  51      -2.98528718
  52       0.00000000
  53       0.00000000
  54      -0.66513934
  55       0.00000000
  56       0.00000000
  57      -0.06789190
  58      -0.01987081
  59      -0.01987081
  60       0.00000000
  61       0.00000000
  62       0.00000000
  63      -0.04989582
  64      -0.20808662
  65      -0.20808662
  66      -0.00000000
  67      -0.00000000
  68      -0.00000000
Ene=     8.94508E-03
Spin= Alpha
Occup=   0.0000000000
   1       0.00000000
   2      -0.00000000
   3      -0.00000000
   4      -0.00000000
   5      -0.00000000
   6      -0.00000000
   7      -0.00000000
   8       0.00000000
   9       0.00000000
  10       0.00000000
  11       0.00000000
  12       0.01182069
  13      -0.02278890
  14       0.00000000
  15      -0.05287600
  16       0.10193870
  17      -0.00000000
  18       0.29332788
  19      -0.56550167
  20      -0.00000000
  21      -0.34778056
  22       0.67048005
  23       0.00000000
  24       0.00000000
  25       0.00000000
  26       0.08182744
  27      -0.15775369
  28       0.00000000
  29       0.00000000
  30       0.00000000
  31       0.00000000
  32      -0.04513665
  33       0.08701816
  34       0.00000000
  35       0.00000000
  36       0.00000000
  37       0.00000000
  38       0.00000000
  39       0.00000000
  40       0.00000000
  41       0.00000000
  42      -0.00000000
  43      -0.00000000
  44      -0.00000000
  45       0.00000000
  46       0.01182069
  47      -0.02278890
  48       0.00000000
  49      -0.05287600
  50       0.10193870
  51      -0.00000000
  52       0.29332788
  53      -0.56550167
  54      -0.00000000
  55      -0.34778056
  56       0.67048005
  57      -0.00000000
  58      -0.00000000
  59      -0.00000000
  60      -0.08182744
  61       0.15775369
  62      -0.00000000
  63      -0.00000000
  64      -0.00000000
  65      -0.00000000
  66       0.04513665
  67      -0.08701816
  68      -0.00000000
Ene=     8.94508E-03
Spin= Alpha
Occup=   0.0000000000
   1      -0.00000000
   2      -0.00000000
   3      -0.00000000
   4       0.00000000
   5      -0.00000000
   6       0.00000000
   7       0.00000000
   8      -0.00000000
   9      -0.00000000
  10       0.00000000
  11       0.00000000
  12       0.02278890
  13       0.01182069
  14       0.00000000
  15      -0.10193870
  16      -0.05287600
  17      -0.00000000
  18       0.56550167
  19       0.29332788
  20       0.00000000
  21      -0.67048005
  22      -0.34778056
  23       0.00000000
  24       0.00000000
  25       0.00000000
  26       0.15775369
  27       0.08182744
  28       0.00000000
  29       0.00000000
  30       0.00000000
  31       0.00000000
  32      -0.08701816
  33      -0.04513665
  34       0.00000000
  35      -0.00000000
  36      -0.00000000
  37       0.00000000
  38      -0.00000000
  39       0.00000000
  40      -0.00000000
  41       0.00000000
  42      -0.00000000
  43       0.00000000
  44      -0.00000000
  45       0.00000000
  46       0.02278890
  47       0.01182069
  48       0.00000000
  49      -0.10193870
  50      -0.05287600
  51      -0.00000000
  52       0.56550167
  53       0.29332788
  54       0.00000000
  55      -0.67048005
  56      -0.34778056
  57      -0.00000000
  58      -0.00000000
  59      -0.00000000
  60      -0.15775369
  61      -0.08182744
  62      -0.00000000
  63      -0.00000000
  64      -0.00000000
  65      -0.00000000
  66       0.08701816
  67       0.04513665
  68      -0.00000000
Ene=     9.86683E-03
Spin= Alpha
Occup=   0.0000000000
   1      -0.11442476
   2       0.13698742
   3      -0.87903061
   4       1.53164378
   5      -0.79487351
   6       0.02753838
   7      -0.09755495
   8       0.05872054
   9       0.00045784
  10       0.00046942
  11      -0.01035638
  12       0.00000000
  13       0.00000000
  14       0.01516926
  15       0.00000000
  16      -0.00000000
  17       0.63578108
  18       0.00000000
  19       0.00000000
  20      -0.25748679
  21      -0.00000000
  22      -0.00000000
  23       0.00934472
  24       0.02324335
  25       0.02324335
  26       0.00000000
  27       0.00000000
  28      -0.00000000
  29       0.04560833
  30       0.00676763
  31       0.00676763
  32      -0.00000000
  33      -0.00000000
  34       0.00000000
  35      -0.11442476
  36       0.13698742
  37      -0.87903080
  38       1.53164376
  39      -0.79487351
  40       0.02753838
  41      -0.09755495
  42       0.05872054
  43       0.00045784
  44       0.00046942
  45       0.01035638
  46      -0.00000000
  47      -0.00000000
  48      -0.01516926
  49      -0.00000000
  50       0.00000000
  51      -0.63578106
  52       0.00000000
  53      -0.00000000
  54       0.25748679
  55       0.00000000
  56       0.00000000
  57       0.00934472
  58       0.02324335
  59       0.02324335
  60      -0.00000000
  61      -0.00000000
  62       0.00000000
  63       0.04560833
  64       0.00676763
  65       0.00676763
  66       0.00000000
  67       0.00000000
  68      -0.00000000
Ene=     1.05043E-02
Spin= Alpha
Occup=   0.0000000000
   1      -0.00310220
   2      -0.08725666
   3    -315.29298114
   4     -52.65205696
   5       0.33532939
   6      -0.08480848
   7       0.00396905
   8       0.00555017
   9       0.00160702
  10      -0.00017515
  11       0.10849341
  12      -0.00000001
  13      -0.00000001
  14       0.33427364
  15       0.00000004
  16       0.00000002
  17     -39.17424358
  18      -0.00000000
  19      -0.00000000
  20     -12.19256514
  21       0.00000000
  22       0.00000000
  23       0.90093512
  24       0.14464057
  25       0.14464057
  26      -0.00000000
  27      -0.00000000
  28      -0.00000000
  29       1.04142383
  30       2.19915139
  31       2.19915139
  32       0.00000000
  33       0.00000000
  34       0.00000000
  35       0.00310220
  36       0.08725666
  37     315.29298114
  38      52.65205696
  39      -0.33532939
  40       0.08480848
  41      -0.00396905
  42      -0.00555017
  43      -0.00160702
  44       0.00017515
  45       0.10849340
  46       0.00000001
  47       0.00000001
  48       0.33427361
  49      -0.00000004
  50      -0.00000002
  51     -39.17424358
  52       0.00000000
  53       0.00000000
  54     -12.19256514
  55      -0.00000000
  56      -0.00000000
  57      -0.90093512
  58      -0.14464057
  59      -0.14464057
  60      -0.00000000
  61      -0.00000000
  62       0.00000000
  63      -1.04142383
  64      -2.19915139
  65      -2.19915139
  66       0.00000000
  67       0.00000000
  68      -0.00000000
Ene=     1.45691E-02
Spin= Alpha
Occup=   0.0000000000
   1      -0.00000000
   2      -0.00000000
   3      -0.00000000
   4       0.00000000
   5      -0.00000000
   6       0.00000000
   7       0.00000000
   8      -0.00000000
   9      -0.00000000
  10       0.00000000
  11       0.00000000
  12      -0.00045262
  13       0.00060058
  14       0.00000000
  15       0.00035999
  16      -0.00047766
  17      -0.00000000
  18      -2.86575645
  19       3.80250938
  20       0.00000000
  21       1.82701139
  22      -2.42422134
  23       0.00000000
  24       0.00000000
  25       0.00000000
  26       0.02244370
  27      -0.02978005
  28      -0.00000000
  29       0.00000000
  30       0.00000000
  31       0.00000000
  32      -0.06784623
  33       0.09002368
  34       0.00000000
  35       0.00000000
  36       0.00000000
  37       0.00000000
  38      -0.00000000
  39      -0.00000000
  40      -0.00000000
  41      -0.00000000
  42       0.00000000
  43       0.00000000
  44      -0.00000000
  45       0.00000000
  46       0.00045262
  47      -0.00060058
  48       0.00000000
  49      -0.00035999
  50       0.00047766
  51      -0.00000000
  52       2.86575645
  53      -3.80250938
  54       0.00000000
  55      -1.82701139
  56       2.42422134
  57      -0.00000000
  58      -0.00000000
  59      -0.00000000
  60       0.02244370
  61      -0.02978005
  62       0.00000000
  63      -0.00000000
  64      -0.00000000
  65      -0.00000000
  66      -0.06784623
  67       0.09002368
  68      -0.00000000
Ene=     1.45691E-02
Spin= Alpha
Occup=   0.0000000000
   1      -0.00000000
   2      -0.00000000
   3      -0.00000000
   4       0.00000000
   5       0.00000000
   6       0.00000000
   7       0.00000000
   8      -0.00000000
   9      -0.00000000
  10       0.00000000
  11       0.00000000
  12      -0.00060058
  13      -0.00045262
  14       0.00000000
  15       0.00047766
  16       0.00035999
  17      -0.00000000
  18      -3.80250938
  19      -2.86575645
  20       0.00000000
  21       2.42422134
  22       1.82701139
  23       0.00000000
  24       0.00000000
  25       0.00000000
  26       0.02978005
  27       0.02244370
  28       0.00000000
  29       0.00000000
  30       0.00000000
  31       0.00000000
  32      -0.09002368
  33      -0.06784623
  34       0.00000000
  35       0.00000000
  36       0.00000000
  37       0.00000000
  38      -0.00000000
  39      -0.00000000
  40      -0.00000000
  41      -0.00000000
  42       0.00000000
  43       0.00000000
  44      -0.00000000
  45       0.00000000
  46       0.00060058
  47       0.00045262
  48       0.00000000
  49      -0.00047766
  50      -0.00035999
  51      -0.00000000
  52       3.80250938
  53       2.86575645
  54       0.00000000
  55      -2.42422134
  56      -1.82701139
  57      -0.00000000
  58      -0.00000000
  59      -0.00000000
  60       0.02978005
  61       0.02244370
  62      -0.00000000
  63      -0.00000000
  64      -0.00000000
  65      -0.00000000
  66      -0.09002368
  67      -0.06784623
  68      -0.00000000
Ene=     1.48709E-02
Spin= Alpha
Occup=   0.0000000000
   1      -0.52068925
   2      -0.91207500
   3       1.33910093
   4       0.00552067
   5      -0.64423864
   6       0.11187225
   7      -0.05540470
   8       0.02394316
   9      -0.00166603
  10       0.00044859
  11      -0.04844453
  12       0.00000000
  13      -0.00000000
  14      -0.16632514
  15      -0.00000000
  16       0.00000000
  17      -3.90378615
  18       0.00000000
  19      -0.00000000
  20       2.43943192
  21      -0.00000000
  22       0.00000000
  23       0.10597900
  24       0.05856679
  25       0.05856679
  26      -0.00000000
  27       0.00000000
  28       0.00000000
  29       0.18211071
  30       0.35724504
  31       0.35724504
  32       0.00000000
  33      -0.00000000
  34      -0.00000000
  35      -0.52068925
  36      -0.91207500
  37       1.33910093
  38       0.00552067
  39      -0.64423864
  40       0.11187225
  41      -0.05540470
  42       0.02394316
  43      -0.00166603
  44       0.00044859
  45       0.04844453
  46      -0.00000000
  47       0.00000000
  48       0.16632514
  49       0.00000000
  50      -0.00000000
  51       3.90378615
  52      -0.00000000
  53       0.00000000
  54      -2.43943192
  55       0.00000000
  56      -0.00000000
  57       0.10597900
  58       0.05856679
  59       0.05856679
  60       0.00000000
  61      -0.00000000
  62      -0.00000000
  63       0.18211071
  64       0.35724504
  65       0.35724504
  66       0.00000000
  67       0.00000000
  68       0.00000000
Ene=     1.62163E-02
Spin= Alpha
Occup=   0.0000000000
   1      -0.00579382
   2      -0.07084868
   3    -203.82730725
   4      19.69661681
   5       1.38338311
   6       0.04286121
   7       0.11467803
   8      -0.07740853
   9      -0.00216601
  10      -0.00041389
  11       0.15433547
  12      -0.00000001
  13      -0.00000001
  14       0.37388416
  15       0.00000003
  16       0.00000002
  17     -26.31945090
  18       0.00000000
  19       0.00000000
  20       5.20609336
  21      -0.00000000
  22      -0.00000000
  23       0.95357083
  24       0.45266157
  25       0.45266157
  26      -0.00000000
  27      -0.00000000
  28      -0.00000000
  29       1.61867520
  30       2.35753730
  31       2.35753730
  32       0.00000000
  33       0.00000000
  34       0.00000000
  35       0.00579381
  36       0.07084868
  37     203.82730725
  38     -19.69661681
  39      -1.38338311
  40      -0.04286121
  41      -0.11467803
  42       0.07740853
  43       0.00216601
  44       0.00041389
  45       0.15433546
  46       0.00000001
  47       0.00000001
  48       0.37388414
  49      -0.00000003
  50      -0.00000002
  51     -26.31945090
  52      -0.00000000
  53      -0.00000000
  54       5.20609336
  55       0.00000000
  56       0.00000000
  57      -0.95357083
  58      -0.45266157
  59      -0.45266157
  60      -0.00000000
  61      -0.00000000
  62       0.00000000
  63      -1.61867520
  64      -2.35753729
  65      -2.35753729
  66       0.00000000
  67       0.00000000
  68      -0.00000000
Ene=     2.20920E-02
Spin= Alpha
Occup=   0.0000000000
   1      -0.01496100
   2      -0.14336028
   3    -457.90244387
   4      83.63609088
   5      -2.15426782
   6       0.10310519
   7      -0.11225195
   8       0.06231401
   9      -0.00048403
  10       0.00064815
  11       0.39112408
  12      -0.00000002
  13      -0.00000001
  14       0.61915858
  15       0.00000006
  16       0.00000004
  17     -57.95001827
  18      -0.00000000
  19      -0.00000000
  20      17.89012443
  21       0.00000000
  22       0.00000000
  23       2.28596915
  24       1.45295289
  25       1.45295289
  26      -0.00000000
  27      -0.00000000
  28      -0.00000000
  29       3.52459739
  30       4.78301888
  31       4.78301888
  32       0.00000000
  33       0.00000000
  34       0.00000000
  35       0.01496100
  36       0.14336027
  37     457.90244387
  38     -83.63609088
  39       2.15426782
  40      -0.10310519
  41       0.11225195
  42      -0.06231401
  43       0.00048403
  44      -0.00064815
  45       0.39112406
  46       0.00000002
  47       0.00000001
  48       0.61915853
  49      -0.00000006
  50      -0.00000004
  51     -57.95001827
  52       0.00000000
  53       0.00000000
  54      17.89012443
  55      -0.00000000
  56      -0.00000000
  57      -2.28596915
  58      -1.45295289
  59      -1.45295289
  60      -0.00000000
  61      -0.00000000
  62       0.00000000
  63      -3.52459738
  64      -4.78301888
  65      -4.78301888
  66       0.00000000
  67       0.00000000
  68      -0.00000000
Ene=     2.57578E-02
Spin= Alpha
Occup=   0.0000000000
   1      -2.98918004
   2      -3.00783585
   3       3.98480219
   4      -1.65058518
   5       0.20665364
   6       0.20400568
   7       0.00124930
   8      -0.02046225
   9      -0.00449930
  10       0.00043714
  11      -0.27274531
  12      -0.00000000