[Molden Format]
[Atoms] AU
E+       1       4     0.00000000     0.00000000     0.00000000
E+       2       4    10.00000000     0.00000000     0.00000000
[GTO]
  1 0
s  1 1.00
   1.0000000000E-04   1.0000000000E+00
s  1 1.00
   3.0000000000E-04   1.0000000000E+00
s  1 1.00
   9.0000000000E-04   1.0000000000E+00
s  1 1.00
   2.7000000000E-03   1.0000000000E+00
s  1 1.00
   8.1000000000E-03   1.0000000000E+00
s  1 1.00
   2.4300000000E-02   1.0000000000E+00
s  1 1.00
   7.2900000000E-02   1.0000000000E+00
s  1 1.00
   2.1870000000E-01   1.0000000000E+00
s  1 1.00
   6.5610000000E-01   1.0000000000E+00
s  1 1.00
   1.9683000000E+00   1.0000000000E+00
p  1 1.00
   1.0000000000E-04   1.0000000000E+00
p  1 1.00
   3.0000000000E-04   1.0000000000E+00
p  1 1.00
   9.0000000000E-04   1.0000000000E+00
p  1 1.00
   2.7000000000E-03   1.0000000000E+00
d  1 1.00
   1.0000000000E-04   1.0000000000E+00
d  1 1.00
   3.0000000000E-04   1.0000000000E+00
 
  2 0
s  1 1.00
   1.0000000000E-04   1.0000000000E+00
s  1 1.00
   3.0000000000E-04   1.0000000000E+00
s  1 1.00
   9.0000000000E-04   1.0000000000E+00
s  1 1.00
   2.7000000000E-03   1.0000000000E+00
s  1 1.00
   8.1000000000E-03   1.0000000000E+00
s  1 1.00
   2.4300000000E-02   1.0000000000E+00
s  1 1.00
   7.2900000000E-02   1.0000000000E+00
s  1 1.00
   2.1870000000E-01   1.0000000000E+00
s  1 1.00
   6.5610000000E-01   1.0000000000E+00
s  1 1.00
   1.9683000000E+00   1.0000000000E+00
p  1 1.00
   1.0000000000E-04   1.0000000000E+00
p  1 1.00
   3.0000000000E-04   1.0000000000E+00
p  1 1.00
   9.0000000000E-04   1.0000000000E+00
p  1 1.00
   2.7000000000E-03   1.0000000000E+00
d  1 1.00
   1.0000000000E-04   1.0000000000E+00
d  1 1.00
   3.0000000000E-04   1.0000000000E+00
 
 
[MO]
Ene=    -1.00442E-02
Spin= Alpha
Occup=   1.0000000000
   1       0.00557433
   2       0.01013600
   3      -0.01866370
   4      -0.08129144
   5      -0.22414324
   6      -0.25673822
   7      -0.12857561
   8       0.11212452
   9       0.00871696
  10      -0.00027828
  11       0.00064606
  12      -0.00000000
  13       0.00000000
  14       0.00214784
  15       0.00000000
  16      -0.00000000
  17       0.02423407
  18      -0.00000000
  19       0.00000000
  20      -0.03145271
  21       0.00000000
  22       0.00000000
  23      -0.00125116
  24      -0.00053796
  25      -0.00053796
  26       0.00000000
  27      -0.00000000
  28      -0.00000000
  29      -0.00164026
  30      -0.00412297
  31      -0.00412297
  32      -0.00000000
  33       0.00000000
  34       0.00000000
  35       0.00557433
  36       0.01013600
  37      -0.01866370
  38      -0.08129144
  39      -0.22414324
  40      -0.25673822
  41      -0.12857561
  42       0.11212452
  43       0.00871696
  44      -0.00027828
  45      -0.00064606
  46       0.00000000
  47       0.00000000
  48      -0.00214784
  49      -0.00000000
  50       0.00000000
  51      -0.02423407
  52       0.00000000
  53      -0.00000000
  54       0.03145271
  55      -0.00000000
  56       0.00000000
  57      -0.00125116
  58      -0.00053796
  59      -0.00053796
  60      -0.00000000
  61       0.00000000
  62       0.00000000
  63      -0.00164026
  64      -0.00412297
  65      -0.00412297
  66       0.00000000
  67      -0.00000000
  68      -0.00000000
Ene=     2.33179E-03
Spin= Alpha
Occup=   0.0000000000
   1       0.00553062
   2       0.00264767
   3     -18.34320386
   4       1.66974285
   5      -0.37253445
   6      -0.08855691
   7      -0.06233805
   8       0.05100873
   9       0.00358337
  10      -0.00006000
  11      -0.09720054
  12       0.00000000
  13       0.00000000
  14      -0.05649246
  15       0.00000000
  16      -0.00000000
  17      -2.33919617
  18      -0.00000000
  19       0.00000000
  20       0.50349994
  21       0.00000000
  22      -0.00000000
  23      -0.32684669
  24      -0.39472817
  25      -0.39472817
  26       0.00000000
  27       0.00000000
  28      -0.00000000
  29      -0.69677004
  30      -0.58683257
  31      -0.58683257
  32       0.00000000
  33      -0.00000000
  34       0.00000000
  35      -0.00553062
  36      -0.00264767
  37      18.34320386
  38      -1.66974285
  39       0.37253445
  40       0.08855691
  41       0.06233805
  42      -0.05100873
  43      -0.00358337
  44       0.00006000
  45      -0.09720054
  46      -0.00000000
  47      -0.00000000
  48      -0.05649246
  49      -0.00000000
  50       0.00000000
  51      -2.33919617
  52       0.00000000
  53      -0.00000000
  54       0.50349994
  55      -0.00000000
  56       0.00000000
  57       0.32684669
  58       0.39472817
  59       0.39472817
  60       0.00000000
  61       0.00000000
  62       0.00000000
  63       0.69677004
  64       0.58683257
  65       0.58683257
  66       0.00000000
  67      -0.00000000
  68      -0.00000000
Ene=     2.47001E-03
Spin= Alpha
Occup=   0.0000000000
   1      -0.16023152
   2      -0.32556672
   3       1.17562151
   4      -0.66433576
   5       0.13105661
   6      -0.12608781
   7      -0.00258920
   8       0.01477189
   9       0.00322860
  10      -0.00033223
  11      -0.01725991
  12       0.00000000
  13       0.00000000
  14      -0.07202144
  15      -0.00000000
  16       0.00000000
  17       0.14374695
  18      -0.00000000
  19       0.00000000
  20      -0.01065373
  21       0.00000000
  22      -0.00000000
  23       0.01995581
  24       0.02285440
  25       0.02285440
  26       0.00000000
  27      -0.00000000
  28      -0.00000000
  29       0.09684567
  30       0.10257731
  31       0.10257731
  32      -0.00000000
  33       0.00000000
  34       0.00000000
  35      -0.16023152
  36      -0.32556672
  37       1.17562151
  38      -0.66433576
  39       0.13105661
  40      -0.12608781
  41      -0.00258920
  42       0.01477189
  43       0.00322860
  44      -0.00033223
  45       0.01725991
  46      -0.00000000
  47      -0.00000000
  48       0.07202144
  49       0.00000000
  50      -0.00000000
  51      -0.14374695
  52       0.00000000
  53      -0.00000000
  54       0.01065373
  55      -0.00000000
  56       0.00000000
  57       0.01995581
  58       0.02285440
  59       0.02285440
  60       0.00000000
  61       0.00000000
  62       0.00000000
  63       0.09684567
  64       0.10257731
  65       0.10257731
  66       0.00000000
  67      -0.00000000
  68      -0.00000000
Ene=     3.52773E-03
Spin= Alpha
Occup=   0.0000000000
   1      -0.00000000
   2       0.00000000
   3       0.00000000
   4      -0.00000000
   5       0.00000000
   6      -0.00000000
   7      -0.00000000
   8       0.00000000
   9       0.00000000
  10       0.00000000
  11      -0.00000000
  12       0.00762969
  13      -0.02639432
  14      -0.00000000
  15      -0.03326064
  16       0.11506265
  17       0.00000000
  18       0.15645212
  19      -0.54123423
  20       0.00000000
  21       0.00689918
  22      -0.02386718
  23      -0.00000000
  24      -0.00000000
  25      -0.00000000
  26       0.04496823
  27      -0.15556416
  28      -0.00000000
  29      -0.00000000
  30      -0.00000000
  31      -0.00000000
  32      -0.02488045
  33       0.08607202
  34       0.00000000
  35      -0.00000000
  36      -0.00000000
  37      -0.00000000
  38       0.00000000
  39      -0.00000000
  40       0.00000000
  41       0.00000000
  42      -0.00000000
  43      -0.00000000
  44      -0.00000000
  45      -0.00000000
  46       0.00762969
  47      -0.02639432
  48      -0.00000000
  49      -0.03326064
  50       0.11506265
  51       0.00000000
  52       0.15645212
  53      -0.54123423
  54       0.00000000
  55       0.00689918
  56      -0.02386718
  57       0.00000000
  58       0.00000000
  59       0.00000000
  60      -0.04496823
  61       0.15556416
  62       0.00000000
  63       0.00000000
  64       0.00000000
  65       0.00000000
  66       0.02488045
  67      -0.08607202
  68      -0.00000000
Ene=     3.52773E-03
Spin= Alpha
Occup=   0.0000000000
   1       0.00000000
   2       0.00000000
   3       0.00000000
   4       0.00000000
   5      -0.00000000
   6      -0.00000000
   7      -0.00000000
   8       0.00000000
   9       0.00000000
  10       0.00000000
  11      -0.00000000
  12      -0.02639432
  13      -0.00762969
  14      -0.00000000
  15       0.11506265
  16       0.03326064
  17       0.00000000
  18      -0.54123423
  19      -0.15645212
  20       0.00000000
  21      -0.02386718
  22      -0.00689918
  23      -0.00000000
  24      -0.00000000
  25      -0.00000000
  26      -0.15556416
  27      -0.04496823
  28      -0.00000000
  29      -0.00000000
  30      -0.00000000
  31      -0.00000000
  32       0.08607202
  33       0.02488045
  34      -0.00000000
  35       0.00000000
  36      -0.00000000
  37      -0.00000000
  38      -0.00000000
  39       0.00000000
  40       0.00000000
  41       0.00000000
  42      -0.00000000
  43      -0.00000000
  44      -0.00000000
  45      -0.00000000
  46      -0.02639432
  47      -0.00762969
  48      -0.00000000
  49       0.11506265
  50       0.03326064
  51       0.00000000
  52      -0.54123423
  53      -0.15645212
  54       0.00000000
  55      -0.02386718
  56      -0.00689918
  57       0.00000000
  58       0.00000000
  59       0.00000000
  60       0.15556416
  61       0.04496823
  62       0.00000000
  63       0.00000000
  64       0.00000000
  65       0.00000000
  66      -0.08607202
  67      -0.02488045
  68       0.00000000
Ene=     5.65686E-03
Spin= Alpha
Occup=   0.0000000000
   1      -0.00877027
   2      -0.00398125
   3      32.32142077
   4      -2.61901693
   5      -0.23945564
   6      -0.18080614
   7      -0.06437086
   8       0.06219551
   9       0.00585424
  10      -0.00028054
  11       0.15358784
  12      -0.00000000
  13      -0.00000000
  14       0.09718178
  15      -0.00000000
  16       0.00000000
  17       4.11586756
  18       0.00000000
  19      -0.00000000
  20      -0.15544299
  21       0.00000000
  22      -0.00000000
  23       0.51415027
  24       0.62450520
  25       0.62450520
  26      -0.00000000
  27      -0.00000000
  28       0.00000000
  29       1.11788522
  30       0.93827652
  31       0.93827652
  32      -0.00000000
  33       0.00000000
  34      -0.00000000
  35       0.00877027
  36       0.00398125
  37     -32.32142077
  38       2.61901693
  39       0.23945564
  40       0.18080614
  41       0.06437086
  42      -0.06219551
  43      -0.00585424
  44       0.00028054
  45       0.15358784
  46       0.00000000
  47       0.00000000
  48       0.09718178
  49       0.00000000
  50      -0.00000000
  51       4.11586756
  52      -0.00000000
  53       0.00000000
  54      -0.15544299
  55      -0.00000000
  56       0.00000000
  57      -0.51415027
  58      -0.62450520
  59      -0.62450520
  60      -0.00000000
  61      -0.00000000
  62      -0.00000000
  63      -1.11788522
  64      -0.93827652
  65      -0.93827652
  66      -0.00000000
  67       0.00000000
  68       0.00000000
Ene=     6.76385E-03
Spin= Alpha
Occup=   0.0000000000
   1      -0.00000000
   2      -0.00000000
   3       0.00000000
   4       0.00000000
   5      -0.00000000
   6       0.00000000
   7      -0.00000000
   8       0.00000000
   9      -0.00000000
  10       0.00000000
  11      -0.00000000
  12       0.00002274
  13      -0.00111002
  14      -0.00000000
  15      -0.00006034
  16       0.00294513
  17      -0.00000000
  18       0.05862241
  19      -2.86115317
  20      -0.00000000
  21       0.01361673
  22      -0.66458481
  23      -0.00000000
  24      -0.00000000
  25      -0.00000000
  26      -0.00069868
  27       0.03410008
  28       0.00000000
  29      -0.00000000
  30      -0.00000000
  31      -0.00000000
  32       0.00206630
  33      -0.10084892
  34      -0.00000000
  35      -0.00000000
  36      -0.00000000
  37      -0.00000000
  38       0.00000000
  39      -0.00000000
  40       0.00000000
  41      -0.00000000
  42       0.00000000
  43      -0.00000000
  44       0.00000000
  45       0.00000000
  46      -0.00002274
  47       0.00111002
  48       0.00000000
  49       0.00006034
  50      -0.00294513
  51       0.00000000
  52      -0.05862241
  53       2.86115317
  54       0.00000000
  55      -0.01361673
  56       0.66458481
  57       0.00000000
  58       0.00000000
  59       0.00000000
  60      -0.00069868
  61       0.03410008
  62      -0.00000000
  63       0.00000000
  64       0.00000000
  65       0.00000000
  66       0.00206630
  67      -0.10084892
  68       0.00000000
Ene=     6.76385E-03
Spin= Alpha
Occup=   0.0000000000
   1      -0.00000000
   2      -0.00000000
   3       0.00000000
   4       0.00000000
   5       0.00000000
   6       0.00000000
   7       0.00000000
   8      -0.00000000
   9      -0.00000000
  10      -0.00000000
  11      -0.00000000
  12       0.00111002
  13       0.00002274
  14      -0.00000000
  15      -0.00294513
  16      -0.00006034
  17       0.00000000
  18       2.86115317
  19       0.05862241
  20       0.00000000
  21       0.66458481
  22       0.01361673
  23      -0.00000000
  24      -0.00000000
  25      -0.00000000
  26      -0.03410008
  27      -0.00069868
  28      -0.00000000
  29      -0.00000000
  30      -0.00000000
  31      -0.00000000
  32       0.10084892
  33       0.00206630
  34      -0.00000000
  35      -0.00000000
  36      -0.00000000
  37      -0.00000000
  38      -0.00000000
  39      -0.00000000
  40      -0.00000000
  41      -0.00000000
  42       0.00000000
  43       0.00000000
  44       0.00000000
  45      -0.00000000
  46      -0.00111002
  47      -0.00002274
  48      -0.00000000
  49       0.00294513
  50       0.00006034
  51       0.00000000
  52      -2.86115317
  53      -0.05862241
  54       0.00000000
  55      -0.66458481
  56      -0.01361673
  57       0.00000000
  58       0.00000000
  59       0.00000000
  60      -0.03410008
  61      -0.00069868
  62       0.00000000
  63       0.00000000
  64       0.00000000
  65       0.00000000
  66       0.10084892
  67       0.00206630
  68       0.00000000
Ene=     6.77973E-03
Spin= Alpha
Occup=   0.0000000000
   1       0.23891253
   2       0.47616446
   3      -0.40103581
   4      -0.56997688
   5       0.04692692
   6      -0.00991518
   7       0.00738081
   8      -0.00385131
   9       0.00013612
  10      -0.00005408
  11       0.02813144
  12      -0.00000000
  13      -0.00000000
  14       0.09992890
  15      -0.00000000
  16       0.00000000
  17       2.35066103
  18       0.00000000
  19      -0.00000000
  20       0.59678086
  21       0.00000000
  22      -0.00000000
  23      -0.06395401
  24      -0.01833261
  25      -0.01833261
  26      -0.00000000
  27       0.00000000
  28       0.00000000
  29      -0.03934969
  30      -0.19642523
  31      -0.19642523
  32       0.00000000
  33      -0.00000000
  34      -0.00000000
  35       0.23891253
  36       0.47616446
  37      -0.40103581
  38      -0.56997688
  39       0.04692692
  40      -0.00991518
  41       0.00738081
  42      -0.00385131
  43       0.00013612
  44      -0.00005408
  45      -0.02813144
  46       0.00000000
  47       0.00000000
  48      -0.09992890
  49       0.00000000
  50      -0.00000000
  51      -2.35066103
  52      -0.00000000
  53       0.00000000
  54      -0.59678086
  55      -0.00000000
  56       0.00000000
  57      -0.06395401
  58      -0.01833261
  59      -0.01833261
  60      -0.00000000
  61       0.00000000
  62      -0.00000000
  63      -0.03934969
  64      -0.19642523
  65      -0.19642523
  66       0.00000000
  67      -0.00000000
  68       0.00000000
Ene=     9.08351E-03
Spin= Alpha
Occup=   0.0000000000
   1      -0.00000000
   2       0.00000000
   3       0.00000000
   4       0.00000000
   5      -0.00000000
   6       0.00000000
   7      -0.00000000
   8      -0.00000000
   9      -0.00000000
  10       0.00000000
  11       0.00000000
  12      -0.00056612
  13      -0.02685178
  14      -0.00000000
  15       0.00249632
  16       0.11840279
  17       0.00000000
  18      -0.01369890
  19      -0.64975044
  20       0.00000000
  21       0.01614776
  22       0.76590221
  23       0.00000000
  24       0.00000000
  25       0.00000000
  26      -0.00304414
  27      -0.14438638
  28      -0.00000000
  29      -0.00000000
  30      -0.00000000
  31      -0.00000000
  32       0.00157650
  33       0.07477497
  34       0.00000000
  35       0.00000000
  36      -0.00000000
  37      -0.00000000
  38      -0.00000000
  39       0.00000000
  40      -0.00000000
  41      -0.00000000
  42       0.00000000
  43       0.00000000
  44      -0.00000000
  45       0.00000000
  46      -0.00056612
  47      -0.02685178
  48      -0.00000000
  49       0.00249632
  50       0.11840279
  51       0.00000000
  52      -0.01369890
  53      -0.64975044
  54       0.00000000
  55       0.01614776
  56       0.76590221
  57      -0.00000000
  58      -0.00000000
  59      -0.00000000
  60       0.00304414
  61       0.14438638
  62       0.00000000
  63       0.00000000
  64       0.00000000
  65       0.00000000
  66      -0.00157650
  67      -0.07477497
  68      -0.00000000
Ene=     9.08351E-03
Spin= Alpha
Occup=   0.0000000000
   1       0.00000000
   2       0.00000000
   3       0.00000000
   4       0.00000000
   5       0.00000000
   6       0.00000000
   7       0.00000000
   8      -0.00000000
   9      -0.00000000
  10       0.00000000
  11      -0.00000000
  12      -0.02685178
  13       0.00056612
  14      -0.00000000
  15       0.11840279
  16      -0.00249632
  17       0.00000000
  18      -0.64975044
  19       0.01369890
  20       0.00000000
  21       0.76590221
  22      -0.01614776
  23      -0.00000000
  24      -0.00000000
  25      -0.00000000
  26      -0.14438638
  27       0.00304414
  28      -0.00000000
  29      -0.00000000
  30      -0.00000000
  31      -0.00000000
  32       0.07477497
  33      -0.00157650
  34       0.00000000
  35      -0.00000000
  36      -0.00000000
  37      -0.00000000
  38      -0.00000000
  39      -0.00000000
  40      -0.00000000
  41      -0.00000000
  42       0.00000000
  43       0.00000000
  44      -0.00000000
  45      -0.00000000
  46      -0.02685178
  47       0.00056612
  48      -0.00000000
  49       0.11840279
  50      -0.00249632
  51       0.00000000
  52      -0.64975044
  53       0.01369890
  54       0.00000000
  55       0.76590221
  56      -0.01614776
  57       0.00000000
  58       0.00000000
  59       0.00000000
  60       0.14438638
  61      -0.00304414
  62       0.00000000
  63       0.00000000
  64       0.00000000
  65       0.00000000
  66      -0.07477497
  67       0.00157650
  68      -0.00000000
Ene=     1.04829E-02
Spin= Alpha
Occup=   0.0000000000
   1      -0.00364166
   2      -0.07800937
   3    -166.65238144
   4     -28.56638985
   5       0.24630764
   6      -0.07458275
   7      -0.00077134
   8       0.00804984
   9       0.00164923
  10      -0.00016107
  11       0.08838361
  12       0.00000000
  13       0.00000000
  14       0.30650703
  15       0.00000000
  16      -0.00000000
  17     -25.29882100
  18      -0.00000000
  19       0.00000000
  20      -8.46321211
  21       0.00000000
  22      -0.00000000
  23       0.65200932
  24       0.05432004
  25       0.05432004
  26       0.00000000
  27       0.00000000
  28      -0.00000000
  29       0.70893097
  30       1.61878848
  31       1.61878848
  32       0.00000000
  33      -0.00000000
  34       0.00000000
  35       0.00364166
  36       0.07800937
  37     166.65238144
  38      28.56638985
  39      -0.24630764
  40       0.07458275
  41       0.00077134
  42      -0.00804984
  43      -0.00164923
  44       0.00016107
  45       0.08838362
  46      -0.00000000
  47      -0.00000000
  48       0.30650703
  49      -0.00000000
  50       0.00000000
  51     -25.29882100
  52       0.00000000
  53      -0.00000000
  54      -8.46321211
  55      -0.00000000
  56       0.00000000
  57      -0.65200932
  58      -0.05432004
  59      -0.05432004
  60       0.00000000
  61       0.00000000
  62       0.00000000
  63      -0.70893097
  64      -1.61878848
  65      -1.61878848
  66       0.00000000
  67      -0.00000000
  68      -0.00000000
Ene=     1.06320E-02
Spin= Alpha
Occup=   0.0000000000
   1      -0.13760753
   2       0.12141469
   3      -0.86741407
   4       1.58741115
   5      -0.92396967
   6       0.05338745
   7      -0.09659443
   8       0.05852133
   9       0.00049879
  10       0.00045257
  11      -0.01518541
  12      -0.00000000
  13      -0.00000000
  14       0.01347207
  15       0.00000000
  16      -0.00000000
  17       0.56953035
  18      -0.00000000
  19      -0.00000000
  20      -0.19745187
  21       0.00000000
  22      -0.00000000
  23       0.01130884
  24       0.02729709
  25       0.02729709
  26      -0.00000000
  27       0.00000000
  28      -0.00000000
  29       0.05894040
  30       0.01580386
  31       0.01580386
  32       0.00000000
  33      -0.00000000
  34      -0.00000000
  35      -0.13760753
  36       0.12141469
  37      -0.86741408
  38       1.58741115
  39      -0.92396967
  40       0.05338745
  41      -0.09659443
  42       0.05852133
  43       0.00049879
  44       0.00045257
  45       0.01518541
  46       0.00000000
  47       0.00000000
  48      -0.01347207
  49       0.00000000
  50       0.00000000
  51      -0.56953035
  52       0.00000000
  53       0.00000000
  54       0.19745187
  55      -0.00000000
  56      -0.00000000
  57       0.01130884
  58       0.02729709
  59       0.02729709
  60       0.00000000
  61      -0.00000000
  62      -0.00000000
  63       0.05894040
  64       0.01580386
  65       0.01580386
  66      -0.00000000
  67       0.00000000
  68       0.00000000
Ene=     1.46433E-02
Spin= Alpha
Occup=   0.0000000000
   1      -0.00000000
   2      -0.00000000
   3       0.00000000
   4      -0.00000000
   5      -0.00000000
   6      -0.00000000
   7      -0.00000000
   8       0.00000000
   9       0.00000000
  10       0.00000000
  11      -0.00000000
  12       0.00067219
  13      -0.00066925
  14      -0.00000000
  15      -0.00052134
  16       0.00051906
  17       0.00000000
  18       2.83946415
  19      -2.82704821
  20      -0.00000000
  21      -1.77702188
  22       1.76925162
  23      -0.00000000
  24      -0.00000000
  25      -0.00000000
  26      -0.02730069
  27       0.02718131
  28       0.00000000
  29      -0.00000000
  30      -0.00000000
  31      -0.00000000
  32       0.08251512
  33      -0.08215431
  34      -0.00000000
  35      -0.00000000
  36      -0.00000000
  37      -0.00000000
  38       0.00000000
  39       0.00000000
  40       0.00000000
  41       0.00000000
  42      -0.00000000
  43      -0.00000000
  44       0.00000000
  45      -0.00000000
  46      -0.00067219
  47       0.00066925
  48      -0.00000000
  49       0.00052134
  50      -0.00051906
  51       0.00000000
  52      -2.83946415
  53       2.82704821
  54      -0.00000000
  55       1.77702188
  56      -1.76925162
  57       0.00000000
  58       0.00000000
  59       0.00000000
  60      -0.02730069
  61       0.02718131
  62      -0.00000000
  63       0.00000000
  64       0.00000000
  65       0.00000000
  66       0.08251512
  67      -0.08215431
  68       0.00000000
Ene=     1.46433E-02
Spin= Alpha
Occup=   0.0000000000
   1       0.00000000
   2       0.00000000
   3       0.00000000
   4      -0.00000000
   5      -0.00000000
   6      -0.00000000
   7      -0.00000000
   8       0.00000000
   9       0.00000000
  10      -0.00000000
  11      -0.00000000
  12       0.00066925
  13       0.00067219
  14      -0.00000000
  15      -0.00051906
  16      -0.00052134
  17       0.00000000
  18       2.82704821
  19       2.83946415
  20      -0.00000000
  21      -1.76925162
  22      -1.77702188
  23      -0.00000000
  24      -0.00000000
  25      -0.00000000
  26      -0.02718131
  27      -0.02730069
  28      -0.00000000
  29      -0.00000000
  30      -0.00000000
  31      -0.00000000
  32       0.08215431
  33       0.08251512
  34       0.00000000
  35       0.00000000
  36       0.00000000
  37      -0.00000000
  38       0.00000000
  39       0.00000000
  40       0.00000000
  41       0.00000000
  42      -0.00000000
  43      -0.00000000
  44      -0.00000000
  45      -0.00000000
  46      -0.00066925
  47      -0.00067219
  48      -0.00000000
  49       0.00051906
  50       0.00052134
  51       0.00000000
  52      -2.82704821
  53      -2.83946415
  54      -0.00000000
  55       1.76925162
  56       1.77702188
  57       0.00000000
  58       0.00000000
  59       0.00000000
  60      -0.02718131
  61      -0.02730069
  62       0.00000000
  63       0.00000000
  64       0.00000000
  65       0.00000000
  66       0.08215431
  67       0.08251512
  68      -0.00000000
Ene=     1.48978E-02
Spin= Alpha
Occup=   0.0000000000
   1       0.52866858
   2       0.91664056
   3      -1.36399457
   4      -0.00796538
   5       0.63144606
   6      -0.09349448
   7       0.04901093
   8      -0.02297653
   9       0.00129788
  10      -0.00039086
  11       0.05960005
  12      -0.00000000
  13      -0.00000000
  14       0.20458001
  15      -0.00000000
  16      -0.00000000
  17       3.25614040
  18      -0.00000000
  19      -0.00000000
  20      -1.98418333
  21       0.00000000
  22       0.00000000
  23      -0.10673242
  24      -0.05953811
  25      -0.05953811
  26      -0.00000000
  27      -0.00000000
  28       0.00000000
  29      -0.17465635
  30      -0.36413963
  31      -0.36413963
  32      -0.00000000
  33      -0.00000000
  34      -0.00000000
  35       0.52866858
  36       0.91664056
  37      -1.36399457
  38      -0.00796538
  39       0.63144606
  40      -0.09349448
  41       0.04901093
  42      -0.02297653
  43       0.00129788
  44      -0.00039086
  45      -0.05960005
  46       0.00000000
  47       0.00000000
  48      -0.20458001
  49       0.00000000
  50       0.00000000
  51      -3.25614040
  52       0.00000000
  53       0.00000000
  54       1.98418333
  55      -0.00000000
  56      -0.00000000
  57      -0.10673242
  58      -0.05953811
  59      -0.05953811
  60       0.00000000
  61       0.00000000
  62      -0.00000000
  63      -0.17465635
  64      -0.36413963
  65      -0.36413963
  66      -0.00000000
  67      -0.00000000
  68       0.00000000
Ene=     1.55275E-02
Spin= Alpha
Occup=   0.0000000000
   1       0.00770428
   2       0.06333104
   3      93.65846784
   4      -4.17765449
   5      -1.33762546
   6       0.00569608
   7      -0.12329313
   8       0.07886842
   9       0.00202466
  10       0.00042084
  11      -0.15197303
  12      -0.00000000
  13      -0.00000000
  14      -0.34708463
  15      -0.00000000
  16       0.00000000
  17      15.25587420
  18      -0.00000000
  19      -0.00000000
  20      -2.13114028
  21       0.00000000
  22       0.00000000
  23      -0.74957828
  24      -0.38556383
  25      -0.38556383
  26      -0.00000000
  27      -0.00000000
  28       0.00000000
  29      -1.30003964
  30      -1.82835409
  31      -1.82835409
  32      -0.00000000
  33       0.00000000
  34      -0.00000000
  35      -0.00770428
  36      -0.06333104
  37     -93.65846784
  38       4.17765449
  39       1.33762546
  40      -0.00569608
  41       0.12329313
  42      -0.07886842
  43      -0.00202466
  44      -0.00042084
  45      -0.15197303
  46       0.00000000
  47       0.00000000
  48      -0.34708463
  49       0.00000000
  50      -0.00000000
  51      15.25587420
  52       0.00000000
  53       0.00000000
  54      -2.13114028
  55      -0.00000000
  56      -0.00000000
  57       0.74957828
  58       0.38556383
  59       0.38556383
  60      -0.00000000
  61      -0.00000000
  62      -0.00000000
  63       1.30003964
  64       1.82835409
  65       1.82835409
  66      -0.00000000
  67       0.00000000
  68       0.00000000
Ene=     2.18633E-02
Spin= Alpha
Occup=   0.0000000000
   1       0.01998344
   2       0.14689724
   3     261.57420809
   4     -47.18219410
   5       1.74780718
   6      -0.11684508
   7       0.10283314
   8      -0.05480866
   9       0.00057365
  10      -0.00057338
  11      -0.39886452
  12      -0.00000000
  13      -0.00000000
  14      -0.65352144
  15      -0.00000000
  16       0.00000000
  17      40.95693846
  18       0.00000000
  19      -0.00000000
  20     -12.36743115
  21      -0.00000000
  22       0.00000000
  23      -1.93235166
  24      -1.19313283
  25      -1.19313283
  26      -0.00000000
  27      -0.00000000
  28       0.00000000
  29      -2.98338992
  30      -4.08083000
  31      -4.08083000
  32      -0.00000000
  33       0.00000000
  34      -0.00000000
  35      -0.01998344
  36      -0.14689724
  37    -261.57420809
  38      47.18219410
  39      -1.74780718
  40       0.11684508
  41      -0.10283314
  42       0.05480866
  43      -0.00057365
  44       0.00057338
  45      -0.39886452
  46       0.00000000
  47       0.00000000
  48      -0.65352145
  49       0.00000000
  50      -0.00000000
  51      40.95693846
  52      -0.00000000
  53       0.00000000
  54     -12.36743115
  55       0.00000000
  56      -0.00000000
  57       1.93235166
  58       1.19313283
  59       1.19313283
  60      -0.00000000
  61      -0.00000000
  62      -0.00000000
  63       2.98338992
  64       4.08083000
  65       4.08083000
  66      -0.00000000
  67       0.00000000
  68       0.00000000
Ene=     2.63050E-02
Spin= Alpha
Occup=   0.0000000000
   1      -3.04723432
   2      -3.04836110
   3       4.13431284
   4      -1.82396643
   5       0.35785876
   6       0.16160826
   7       0.00585804
   8      -0.02033821
   9      -0.00403630
  10       0.00038597
  11      -0.33686583
  12       0.00000000