[Molden Format]
[Atoms] AU
E+       1       4     0.00000000     0.00000000     0.00000000
E+       2       4    16.60000000     0.00000000     0.00000000
[GTO]
  1 0
s  1 1.00
   1.0000000000E-04   1.0000000000E+00
s  1 1.00
   3.0000000000E-04   1.0000000000E+00
s  1 1.00
   9.0000000000E-04   1.0000000000E+00
s  1 1.00
   2.7000000000E-03   1.0000000000E+00
s  1 1.00
   8.1000000000E-03   1.0000000000E+00
s  1 1.00
   2.4300000000E-02   1.0000000000E+00
s  1 1.00
   7.2900000000E-02   1.0000000000E+00
s  1 1.00
   2.1870000000E-01   1.0000000000E+00
s  1 1.00
   6.5610000000E-01   1.0000000000E+00
s  1 1.00
   1.9683000000E+00   1.0000000000E+00
p  1 1.00
   1.0000000000E-04   1.0000000000E+00
p  1 1.00
   3.0000000000E-04   1.0000000000E+00
p  1 1.00
   9.0000000000E-04   1.0000000000E+00
p  1 1.00
   2.7000000000E-03   1.0000000000E+00
d  1 1.00
   1.0000000000E-04   1.0000000000E+00
d  1 1.00
   3.0000000000E-04   1.0000000000E+00
 
  2 0
s  1 1.00
   1.0000000000E-04   1.0000000000E+00
s  1 1.00
   3.0000000000E-04   1.0000000000E+00
s  1 1.00
   9.0000000000E-04   1.0000000000E+00
s  1 1.00
   2.7000000000E-03   1.0000000000E+00
s  1 1.00
   8.1000000000E-03   1.0000000000E+00
s  1 1.00
   2.4300000000E-02   1.0000000000E+00
s  1 1.00
   7.2900000000E-02   1.0000000000E+00
s  1 1.00
   2.1870000000E-01   1.0000000000E+00
s  1 1.00
   6.5610000000E-01   1.0000000000E+00
s  1 1.00
   1.9683000000E+00   1.0000000000E+00
p  1 1.00
   1.0000000000E-04   1.0000000000E+00
p  1 1.00
   3.0000000000E-04   1.0000000000E+00
p  1 1.00
   9.0000000000E-04   1.0000000000E+00
p  1 1.00
   2.7000000000E-03   1.0000000000E+00
d  1 1.00
   1.0000000000E-04   1.0000000000E+00
d  1 1.00
   3.0000000000E-04   1.0000000000E+00
 
 
[MO]
Ene=    -5.73529E-03
Spin= Alpha
Occup=   1.0000000000
   1       0.00961638
   2       0.10339349
   3      -0.04316165
   4      -0.15463188
   5      -0.24481879
   6      -0.20244615
   7      -0.12441265
   8       0.09999180
   9       0.00686099
  10      -0.00010086
  11       0.00426702
  12       0.00000000
  13       0.00000000
  14      -0.28920804
  15       0.00000000
  16      -0.00000000
  17       0.02386898
  18      -0.00000000
  19       0.00000000
  20      -0.03331139
  21       0.00000000
  22      -0.00000000
  23      -0.00083496
  24      -0.00130945
  25      -0.00130945
  26       0.00000000
  27       0.00000000
  28       0.00000000
  29      -0.07833119
  30      -0.00693238
  31      -0.00693238
  32       0.00000000
  33      -0.00000000
  34       0.00000000
  35       0.00961638
  36       0.10339349
  37      -0.04316165
  38      -0.15463188
  39      -0.24481879
  40      -0.20244615
  41      -0.12441265
  42       0.09999180
  43       0.00686099
  44      -0.00010086
  45      -0.00426702
  46      -0.00000000
  47      -0.00000000
  48       0.28920804
  49      -0.00000000
  50       0.00000000
  51      -0.02386898
  52       0.00000000
  53      -0.00000000
  54       0.03331139
  55      -0.00000000
  56      -0.00000000
  57      -0.00083496
  58      -0.00130945
  59      -0.00130945
  60       0.00000000
  61       0.00000000
  62      -0.00000000
  63      -0.07833119
  64      -0.00693238
  65      -0.00693238
  66       0.00000000
  67      -0.00000000
  68      -0.00000000
Ene=    -6.13932E-04
Spin= Alpha
Occup=   0.0000000000
   1      -0.00168089
   2      -0.00060498
   3       1.38820401
   4       0.21497905
   5       0.32642826
   6       0.21366988
   7       0.12703466
   8      -0.10224865
   9      -0.00709597
  10       0.00010641
  11       0.01810728
  12       0.00000000
  13      -0.00000000
  14       0.00564236
  15       0.00000000
  16       0.00000000
  17       0.27976840
  18      -0.00000000
  19      -0.00000000
  20      -0.09089470
  21      -0.00000000
  22      -0.00000000
  23       0.03432606
  24       0.04693688
  25       0.04693688
  26       0.00000000
  27      -0.00000000
  28       0.00000000
  29       0.07685829
  30       0.05550733
  31       0.05550733
  32       0.00000000
  33       0.00000000
  34      -0.00000000
  35       0.00168089
  36       0.00060498
  37      -1.38820401
  38      -0.21497905
  39      -0.32642826
  40      -0.21366988
  41      -0.12703466
  42       0.10224865
  43       0.00709597
  44      -0.00010641
  45       0.01810728
  46      -0.00000000
  47       0.00000000
  48       0.00564236
  49      -0.00000000
  50      -0.00000000
  51       0.27976840
  52       0.00000000
  53       0.00000000
  54      -0.09089470
  55       0.00000000
  56       0.00000000
  57      -0.03432606
  58      -0.04693688
  59      -0.04693688
  60       0.00000000
  61      -0.00000000
  62      -0.00000000
  63      -0.07685829
  64      -0.05550733
  65      -0.05550733
  66       0.00000000
  67       0.00000000
  68       0.00000000
Ene=     2.99170E-03
Spin= Alpha
Occup=   0.0000000000
   1      -0.16306146
   2       0.10146624
   3       1.18600874
   4      -0.77414716
   5       0.09347078
   6      -0.11155556
   7      -0.01848997
   8       0.02313290
   9       0.00308989
  10      -0.00023528
  11      -0.01529731
  12       0.00000000
  13       0.00000000
  14      -1.46688165
  15       0.00000000
  16      -0.00000000
  17       0.33992192
  18      -0.00000000
  19       0.00000000
  20      -0.07382255
  21       0.00000000
  22      -0.00000000
  23       0.01916002
  24       0.02427253
  25       0.02427253
  26       0.00000000
  27       0.00000000
  28       0.00000000
  29      -0.25434570
  30       0.09830293
  31       0.09830293
  32       0.00000000
  33      -0.00000000
  34      -0.00000000
  35      -0.16306146
  36       0.10146624
  37       1.18600874
  38      -0.77414716
  39       0.09347078
  40      -0.11155556
  41      -0.01848997
  42       0.02313290
  43       0.00308989
  44      -0.00023528
  45       0.01529731
  46      -0.00000000
  47      -0.00000000
  48       1.46688165
  49      -0.00000000
  50       0.00000000
  51      -0.33992192
  52       0.00000000
  53      -0.00000000
  54       0.07382255
  55      -0.00000000
  56      -0.00000000
  57       0.01916002
  58       0.02427253
  59       0.02427253
  60       0.00000000
  61       0.00000000
  62      -0.00000000
  63      -0.25434570
  64       0.09830293
  65       0.09830293
  66       0.00000000
  67      -0.00000000
  68       0.00000000
Ene=     3.79467E-03
Spin= Alpha
Occup=   0.0000000000
   1       0.00000000
   2       0.00000000
   3       0.00000000
   4       0.00000000
   5      -0.00000000
   6       0.00000000
   7      -0.00000000
   8       0.00000000
   9       0.00000000
  10       0.00000000
  11      -0.00000000
  12      -0.02922889
  13       0.00000451
  14      -0.00000000
  15       0.12046596
  16      -0.00001858
  17       0.00000000
  18      -0.53377344
  19       0.00008231
  20       0.00000000
  21      -0.07564210
  22       0.00001166
  23      -0.00000000
  24      -0.00000000
  25      -0.00000000
  26      -0.08368105
  27       0.00001290
  28      -0.00000000
  29      -0.00000000
  30      -0.00000000
  31      -0.00000000
  32       0.03442012
  33      -0.00000531
  34       0.00000000
  35       0.00000000
  36       0.00000000
  37      -0.00000000
  38      -0.00000000
  39      -0.00000000
  40       0.00000000
  41      -0.00000000
  42       0.00000000
  43      -0.00000000
  44       0.00000000
  45      -0.00000000
  46      -0.02922889
  47       0.00000451
  48       0.00000000
  49       0.12046596
  50      -0.00001858
  51      -0.00000000
  52      -0.53377344
  53       0.00008231
  54       0.00000000
  55      -0.07564210
  56       0.00001166
  57       0.00000000
  58       0.00000000
  59       0.00000000
  60       0.08368105
  61      -0.00001290
  62       0.00000000
  63      -0.00000000
  64       0.00000000
  65       0.00000000
  66      -0.03442012
  67       0.00000531
  68      -0.00000000
Ene=     3.79467E-03
Spin= Alpha
Occup=   0.0000000000
   1      -0.00000000
   2       0.00000000
   3       0.00000000
   4       0.00000000
   5      -0.00000000
   6      -0.00000000
   7      -0.00000000
   8       0.00000000
   9      -0.00000000
  10       0.00000000
  11      -0.00000000
  12       0.00000451
  13       0.02922889
  14      -0.00000000
  15      -0.00001858
  16      -0.12046596
  17       0.00000000
  18       0.00008231
  19       0.53377344
  20       0.00000000
  21       0.00001166
  22       0.07564210
  23       0.00000000
  24       0.00000000
  25       0.00000000
  26       0.00001290
  27       0.08368105
  28       0.00000000
  29      -0.00000000
  30      -0.00000000
  31      -0.00000000
  32      -0.00000531
  33      -0.03442012
  34      -0.00000000
  35      -0.00000000
  36       0.00000000
  37      -0.00000000
  38      -0.00000000
  39       0.00000000
  40       0.00000000
  41      -0.00000000
  42       0.00000000
  43      -0.00000000
  44       0.00000000
  45       0.00000000
  46       0.00000451
  47       0.02922889
  48       0.00000000
  49      -0.00001858
  50      -0.12046596
  51       0.00000000
  52       0.00008231
  53       0.53377344
  54       0.00000000
  55       0.00001166
  56       0.07564210
  57       0.00000000
  58      -0.00000000
  59      -0.00000000
  60      -0.00001290
  61      -0.08368105
  62      -0.00000000
  63      -0.00000000
  64       0.00000000
  65       0.00000000
  66       0.00000531
  67       0.03442012
  68      -0.00000000
Ene=     5.02750E-03
Spin= Alpha
Occup=   0.0000000000
   1      -0.01349121
   2      -0.00704174
   3      11.53894801
   4      -1.23748965
   5      -0.20096744
   6      -0.09824767
   7      -0.06543118
   8       0.05093373
   9       0.00324512
  10      -0.00000718
  11       0.14501504
  12       0.00000000
  13      -0.00000000
  14       0.06217811
  15      -0.00000000
  16       0.00000000
  17       2.24294751
  18       0.00000000
  19      -0.00000000
  20      -0.36793307
  21      -0.00000000
  22      -0.00000000
  23       0.27875322
  24       0.37186684
  25       0.37186684
  26       0.00000000
  27      -0.00000000
  28      -0.00000000
  29       0.63059201
  30       0.47080231
  31       0.47080231
  32      -0.00000000
  33       0.00000000
  34       0.00000000
  35       0.01349121
  36       0.00704174
  37     -11.53894801
  38       1.23748965
  39       0.20096744
  40       0.09824767
  41       0.06543118
  42      -0.05093373
  43      -0.00324512
  44       0.00000718
  45       0.14501504
  46      -0.00000000
  47       0.00000000
  48       0.06217811
  49       0.00000000
  50      -0.00000000
  51       2.24294751
  52      -0.00000000
  53       0.00000000
  54      -0.36793307
  55       0.00000000
  56      -0.00000000
  57      -0.27875322
  58      -0.37186684
  59      -0.37186684
  60       0.00000000
  61      -0.00000000
  62       0.00000000
  63      -0.63059201
  64      -0.47080231
  65      -0.47080231
  66      -0.00000000
  67       0.00000000
  68      -0.00000000
Ene=     6.74392E-03
Spin= Alpha
Occup=   0.0000000000
   1       0.20840532
   2       2.25946047
   3      -0.13132913
   4      -0.78088528
   5       0.21415198
   6      -0.05037083
   7       0.02609241
   8      -0.01096276
   9       0.00098347
  10      -0.00023830
  11       0.09718562
  12       0.00000000
  13       0.00000000
  14      -6.68859122
  15       0.00000000
  16      -0.00000000
  17       1.17343359
  18      -0.00000000
  19       0.00000000
  20       0.50815433
  21      -0.00000000
  22       0.00000000
  23      -0.02501332
  24      -0.02673993
  25      -0.02673993
  26       0.00000000
  27       0.00000000
  28      -0.00000000
  29      -1.76149976
  30      -0.14391054
  31      -0.14391054
  32       0.00000000
  33      -0.00000000
  34       0.00000000
  35       0.20840532
  36       2.25946047
  37      -0.13132913
  38      -0.78088528
  39       0.21415198
  40      -0.05037083
  41       0.02609241
  42      -0.01096276
  43       0.00098347
  44      -0.00023830
  45      -0.09718562
  46      -0.00000000
  47      -0.00000000
  48       6.68859122
  49      -0.00000000
  50       0.00000000
  51      -1.17343359
  52       0.00000000
  53      -0.00000000
  54      -0.50815433
  55       0.00000000
  56      -0.00000000
  57      -0.02501332
  58      -0.02673993
  59      -0.02673993
  60       0.00000000
  61       0.00000000
  62       0.00000000
  63      -1.76149976
  64      -0.14391054
  65      -0.14391054
  66       0.00000000
  67      -0.00000000
  68      -0.00000000
Ene=     6.96937E-03
Spin= Alpha
Occup=   0.0000000000
   1       0.00000000
   2       0.00000000
   3      -0.00000000
   4       0.00000000
   5      -0.00000000
   6       0.00000000
   7      -0.00000000
   8       0.00000000
   9      -0.00000000
  10       0.00000000
  11       0.00000000
  12       0.36319700
  13      -0.08426009
  14       0.00000000
  15       6.75809885
  16      -1.56784894
  17      -0.00000000
  18      -1.44593127
  19       0.33544964
  20      -0.00000000
  21      -0.58877221
  22       0.13659254
  23       0.00000000
  24       0.00000000
  25       0.00000000
  26       0.05186592
  27      -0.01203266
  28       0.00000000
  29       0.00000000
  30       0.00000000
  31       0.00000000
  32       0.90472083
  33      -0.20989122
  34      -0.00000000
  35      -0.00000000
  36      -0.00000000
  37       0.00000000
  38       0.00000000
  39      -0.00000000
  40       0.00000000
  41      -0.00000000
  42       0.00000000
  43      -0.00000000
  44       0.00000000
  45      -0.00000000
  46      -0.36319700
  47       0.08426009
  48       0.00000000
  49      -6.75809885
  50       1.56784894
  51      -0.00000000
  52       1.44593127
  53      -0.33544964
  54       0.00000000
  55       0.58877221
  56      -0.13659254
  57       0.00000000
  58      -0.00000000
  59      -0.00000000
  60       0.05186592
  61      -0.01203266
  62      -0.00000000
  63       0.00000000
  64      -0.00000000
  65      -0.00000000
  66       0.90472083
  67      -0.20989122
  68       0.00000000
Ene=     6.96937E-03
Spin= Alpha
Occup=   0.0000000000
   1       0.00000000
   2       0.00000000
   3       0.00000000
   4      -0.00000000
   5       0.00000000
   6      -0.00000000
   7       0.00000000
   8      -0.00000000
   9       0.00000000
  10      -0.00000000
  11      -0.00000000
  12       0.08426009
  13       0.36319700
  14       0.00000000
  15       1.56784894
  16       6.75809885
  17       0.00000000
  18      -0.33544964
  19      -1.44593127
  20       0.00000000
  21      -0.13659254
  22      -0.58877221
  23      -0.00000000
  24       0.00000000
  25       0.00000000
  26       0.01203266
  27       0.05186592
  28      -0.00000000
  29       0.00000000
  30      -0.00000000
  31      -0.00000000
  32       0.20989122
  33       0.90472083
  34       0.00000000
  35      -0.00000000
  36      -0.00000000
  37      -0.00000000
  38      -0.00000000
  39       0.00000000
  40      -0.00000000
  41       0.00000000
  42      -0.00000000
  43       0.00000000
  44      -0.00000000
  45       0.00000000
  46      -0.08426009
  47      -0.36319700
  48       0.00000000
  49      -1.56784894
  50      -6.75809885
  51       0.00000000
  52       0.33544964
  53       1.44593127
  54      -0.00000000
  55       0.13659254
  56       0.58877221
  57      -0.00000000
  58       0.00000000
  59       0.00000000
  60       0.01203266
  61       0.05186592
  62       0.00000000
  63       0.00000000
  64       0.00000000
  65       0.00000000
  66       0.20989122
  67       0.90472083
  68      -0.00000000
Ene=     9.77168E-03
Spin= Alpha
Occup=   0.0000000000
   1       0.00000000
   2       0.00000000
   3       0.00000000
   4       0.00000000
   5       0.00000000
   6       0.00000000
   7       0.00000000
   8      -0.00000000
   9      -0.00000000
  10       0.00000000
  11       0.00000000
  12       0.03352665
  13       0.00003352
  14      -0.00000000
  15      -0.13824929
  16      -0.00013824
  17       0.00000000
  18       0.71946325
  19       0.00071940
  20       0.00000000
  21      -0.81920818
  22      -0.00081914
  23      -0.00000000
  24       0.00000000
  25       0.00000000
  26       0.08069821
  27       0.00008069
  28       0.00000000
  29      -0.00000000
  30      -0.00000000
  31      -0.00000000
  32      -0.02423072
  33      -0.00002423
  34      -0.00000000
  35       0.00000000
  36      -0.00000000
  37      -0.00000000
  38      -0.00000000
  39      -0.00000000
  40      -0.00000000
  41      -0.00000000
  42       0.00000000
  43       0.00000000
  44      -0.00000000
  45      -0.00000000
  46       0.03352665
  47       0.00003352
  48      -0.00000000
  49      -0.13824929
  50      -0.00013824
  51       0.00000000
  52       0.71946325
  53       0.00071940
  54       0.00000000
  55      -0.81920818
  56      -0.00081914
  57       0.00000000
  58      -0.00000000
  59      -0.00000000
  60      -0.08069821
  61      -0.00008069
  62      -0.00000000
  63       0.00000000
  64       0.00000000
  65       0.00000000
  66       0.02423072
  67       0.00002423
  68       0.00000000
Ene=     9.77168E-03
Spin= Alpha
Occup=   0.0000000000
   1       0.00000000
   2       0.00000000
   3       0.00000000
   4       0.00000000
   5       0.00000000
   6       0.00000000
   7       0.00000000
   8      -0.00000000
   9      -0.00000000
  10       0.00000000
  11      -0.00000000
  12      -0.00003352
  13       0.03352665
  14      -0.00000000
  15       0.00013824
  16      -0.13824929
  17       0.00000000
  18      -0.00071940
  19       0.71946325
  20       0.00000000
  21       0.00081914
  22      -0.81920818
  23      -0.00000000
  24       0.00000000
  25       0.00000000
  26      -0.00008069
  27       0.08069821
  28       0.00000000
  29      -0.00000000
  30      -0.00000000
  31      -0.00000000
  32       0.00002423
  33      -0.02423072
  34      -0.00000000
  35       0.00000000
  36       0.00000000
  37      -0.00000000
  38      -0.00000000
  39      -0.00000000
  40      -0.00000000
  41      -0.00000000
  42       0.00000000
  43       0.00000000
  44      -0.00000000
  45      -0.00000000
  46      -0.00003352
  47       0.03352665
  48       0.00000000
  49       0.00013824
  50      -0.13824929
  51       0.00000000
  52      -0.00071940
  53       0.71946325
  54       0.00000000
  55       0.00081914
  56      -0.81920818
  57       0.00000000
  58      -0.00000000
  59      -0.00000000
  60       0.00008069
  61      -0.08069821
  62      -0.00000000
  63      -0.00000000
  64       0.00000000
  65       0.00000000
  66      -0.00002423
  67       0.02423072
  68       0.00000000
Ene=     1.03905E-02
Spin= Alpha
Occup=   0.0000000000
   1       0.00044831
   2      -0.05533662
   3     -31.45273620
   4      -4.74981582
   5       0.03253081
   6      -0.04403906
   7      -0.01681989
   8       0.01473348
   9       0.00123865
  10      -0.00004360
  11      -0.00300953
  12      -0.00000000
  13       0.00000000
  14       0.19180775
  15       0.00000000
  16      -0.00000000
  17      -7.74705465
  18      -0.00000000
  19       0.00000000
  20      -3.35399191
  21       0.00000000
  22      -0.00000000
  23       0.15731537
  24      -0.14867480
  25      -0.14867480
  26      -0.00000000
  27       0.00000000
  28      -0.00000000
  29       0.02982651
  30       0.49047490
  31       0.49047490
  32       0.00000000
  33      -0.00000000
  34       0.00000000
  35      -0.00044831
  36       0.05533662
  37      31.45273620
  38       4.74981582
  39      -0.03253081
  40       0.04403906
  41       0.01681989
  42      -0.01473348
  43      -0.00123865
  44       0.00004360
  45      -0.00300953
  46       0.00000000
  47      -0.00000000
  48       0.19180775
  49      -0.00000000
  50       0.00000000
  51      -7.74705465
  52       0.00000000
  53      -0.00000000
  54      -3.35399191
  55      -0.00000000
  56       0.00000000
  57      -0.15731537
  58       0.14867480
  59       0.14867480
  60      -0.00000000
  61       0.00000000
  62       0.00000000
  63      -0.02982651
  64      -0.49047490
  65      -0.49047490
  66       0.00000000
  67      -0.00000000
  68      -0.00000000
Ene=     1.26599E-02
Spin= Alpha
Occup=   0.0000000000
   1      -0.21177508
   2       1.07873946
   3      -0.73555392
   4       1.73501674
   5      -1.26048589
   6       0.09669133
   7      -0.13184906
   8       0.07279963
   9      -0.00054236
  10       0.00073248
  11      -0.00753696
  12       0.00000000
  13       0.00000000
  14      -3.72438648
  15      -0.00000000
  16      -0.00000000
  17       0.22669116
  18       0.00000000
  19       0.00000000
  20       0.04112365
  21      -0.00000000
  22      -0.00000000
  23       0.03338411
  24       0.03389927
  25       0.03389927
  26       0.00000000
  27       0.00000000
  28      -0.00000000
  29      -0.85958653
  30       0.06679921
  31       0.06679921
  32      -0.00000000
  33      -0.00000000
  34       0.00000000
  35      -0.21177508
  36       1.07873946
  37      -0.73555392
  38       1.73501674
  39      -1.26048589
  40       0.09669133
  41      -0.13184906
  42       0.07279963
  43      -0.00054236
  44       0.00073248
  45       0.00753696
  46      -0.00000000
  47      -0.00000000
  48       3.72438648
  49       0.00000000
  50       0.00000000
  51      -0.22669116
  52      -0.00000000
  53      -0.00000000
  54      -0.04112365
  55       0.00000000
  56       0.00000000
  57       0.03338411
  58       0.03389927
  59       0.03389927
  60       0.00000000
  61       0.00000000
  62       0.00000000
  63      -0.85958653
  64       0.06679921
  65       0.06679921
  66      -0.00000000
  67      -0.00000000
  68      -0.00000000
Ene=     1.48363E-02
Spin= Alpha
Occup=   0.0000000000
   1       0.01465946
   2       0.06365694
   3      10.74674997
   4       3.88057690
   5      -1.21413764
   6       0.08749898
   7      -0.12272650
   8       0.06907169
   9      -0.00002544
  10       0.00062605
  11      -0.15833059
  12       0.00000000
  13      -0.00000000
  14      -0.30285174
  15      -0.00000000
  16       0.00000000
  17       3.84352011
  18       0.00000000
  19      -0.00000000
  20       0.56184744
  21      -0.00000000
  22       0.00000000
  23      -0.44275066
  24      -0.27465554
  25      -0.27465554
  26      -0.00000000
  27      -0.00000000
  28       0.00000000
  29      -0.80822957
  30      -1.02611258
  31      -1.02611258
  32      -0.00000000
  33       0.00000000
  34       0.00000000
  35      -0.01465946
  36      -0.06365694
  37     -10.74674997
  38      -3.88057690
  39       1.21413764
  40      -0.08749898
  41       0.12272650
  42      -0.06907169
  43       0.00002544
  44      -0.00062605
  45      -0.15833059
  46      -0.00000000
  47       0.00000000
  48      -0.30285174
  49       0.00000000
  50      -0.00000000
  51       3.84352011
  52      -0.00000000
  53       0.00000000
  54       0.56184744
  55       0.00000000
  56      -0.00000000
  57       0.44275066
  58       0.27465554
  59       0.27465554
  60       0.00000000
  61      -0.00000000
  62      -0.00000000
  63       0.80822957
  64       1.02611258
  65       1.02611258
  66      -0.00000000
  67       0.00000000
  68      -0.00000000
Ene=     1.49704E-02
Spin= Alpha
Occup=   0.0000000000
   1      -0.60320300
   2      -3.85582112
   3       1.57852888
   4      -0.26024022
   5      -0.32846372
   6       0.01163246
   7      -0.02745207
   8       0.01622512
   9       0.00013786
  10       0.00012724
  11      -0.19445309
  12      -0.00000000
  13      -0.00000000
  14       9.78177566
  15       0.00000000
  16       0.00000000
  17      -2.26365874
  18       0.00000000
  19      -0.00000000
  20       1.16595274
  21      -0.00000000
  22       0.00000000
  23       0.07762442
  24       0.08095152
  25       0.08095152
  26      -0.00000000
  27      -0.00000000
  28       0.00000000
  29       2.74098607
  30       0.39895538
  31       0.39895538
  32       0.00000000
  33       0.00000000
  34      -0.00000000
  35      -0.60320300
  36      -3.85582112
  37       1.57852888
  38      -0.26024022
  39      -0.32846372
  40       0.01163246
  41      -0.02745207
  42       0.01622512
  43       0.00013786
  44       0.00012724
  45       0.19445309
  46       0.00000000
  47       0.00000000
  48      -9.78177566
  49      -0.00000000
  50      -0.00000000
  51       2.26365874
  52      -0.00000000
  53       0.00000000
  54      -1.16595274
  55       0.00000000
  56      -0.00000000
  57       0.07762442
  58       0.08095152
  59       0.08095152
  60      -0.00000000
  61      -0.00000000
  62      -0.00000000
  63       2.74098607
  64       0.39895538
  65       0.39895538
  66       0.00000000
  67       0.00000000
  68       0.00000000
Ene=     1.50582E-02
Spin= Alpha
Occup=   0.0000000000
   1       0.00000000
   2       0.00000000
   3       0.00000000
   4       0.00000000
   5      -0.00000000
   6       0.00000000
   7      -0.00000000
   8       0.00000000
   9       0.00000000
  10       0.00000000
  11       0.00000000
  12       0.50299779
  13      -0.02957033
  14       0.00000000
  15       9.34838978
  16      -0.54957490
  17       0.00000000
  18      -2.76116726
  19       0.16232402
  20       0.00000000
  21       1.56859309
  22      -0.09221475
  23       0.00000000
  24      -0.00000000
  25       0.00000000
  26       0.07690807
  27      -0.00452129
  28       0.00000000
  29       0.00000000
  30      -0.00000000
  31      -0.00000000
  32       1.23358393
  33      -0.07252017
  34      -0.00000000
  35      -0.00000000
  36      -0.00000000
  37      -0.00000000
  38      -0.00000000
  39       0.00000000
  40      -0.00000000
  41       0.00000000
  42      -0.00000000
  43       0.00000000
  44      -0.00000000
  45      -0.00000000
  46      -0.50299779
  47       0.02957033
  48       0.00000000
  49      -9.34838978
  50       0.54957490
  51       0.00000000
  52       2.76116726
  53      -0.16232402
  54       0.00000000
  55      -1.56859309
  56       0.09221475
  57       0.00000000
  58       0.00000000
  59      -0.00000000
  60       0.07690807
  61      -0.00452129
  62      -0.00000000
  63       0.00000000
  64       0.00000000
  65       0.00000000
  66       1.23358393
  67      -0.07252017
  68       0.00000000
Ene=     1.50582E-02
Spin= Alpha
Occup=   0.0000000000
   1      -0.00000000
   2      -0.00000000
   3       0.00000000
   4       0.00000000
   5      -0.00000000
   6       0.00000000
   7      -0.00000000
   8       0.00000000
   9      -0.00000000
  10       0.00000000
  11       0.00000000
  12      -0.02957033
  13      -0.50299779
  14       0.00000000
  15      -0.54957490
  16      -9.34838978
  17      -0.00000000
  18       0.16232402
  19       2.76116726
  20       0.00000000
  21      -0.09221475
  22      -1.56859309
  23       0.00000000
  24      -0.00000000
  25      -0.00000000
  26      -0.00452129
  27      -0.07690807
  28      -0.00000000
  29       0.00000000
  30      -0.00000000
  31      -0.00000000
  32      -0.07252017
  33      -1.23358393
  34      -0.00000000
  35       0.00000000
  36       0.00000000
  37      -0.00000000
  38      -0.00000000
  39       0.00000000
  40      -0.00000000
  41       0.00000000
  42      -0.00000000
  43       0.00000000
  44      -0.00000000
  45      -0.00000000
  46       0.02957033
  47       0.50299779
  48      -0.00000000
  49       0.54957490
  50       9.34838978
  51       0.00000000
  52      -0.16232402
  53      -2.76116726
  54      -0.00000000
  55       0.09221475
  56       1.56859309
  57       0.00000000
  58       0.00000000
  59       0.00000000
  60      -0.00452129
  61      -0.07690807
  62       0.00000000
  63       0.00000000
  64       0.00000000
  65       0.00000000
  66      -0.07252017
  67      -1.23358393
  68       0.00000000
Ene=     2.19327E-02
Spin= Alpha
Occup=   0.0000000000
   1       0.03937185
   2       0.18447876
   3      59.02012980
   4     -10.48564961
   5       1.11998414
   6      -0.11789440
   7       0.07487993
   8      -0.03639130
   9       0.00126602
  10      -0.00050822
  11      -0.43042345
  12       0.00000000
  13      -0.00000000
  14      -0.73378574
  15      -0.00000000
  16       0.00000000
  17      16.63036630
  18       0.00000000
  19      -0.00000000
  20      -4.64563542
  21      -0.00000000
  22      -0.00000000
  23      -1.28807280
  24      -0.75645561
  25      -0.75645561
  26       0.00000000
  27      -0.00000000
  28       0.00000000
  29      -2.00313170
  30      -2.73100741
  31      -2.73100741
  32      -0.00000000
  33       0.00000000
  34       0.00000000
  35      -0.03937185
  36      -0.18447876
  37     -59.02012980
  38      10.48564961
  39      -1.11998414
  40       0.11789440
  41      -0.07487993
  42       0.03639130
  43      -0.00126602
  44       0.00050822
  45      -0.43042345
  46      -0.00000000
  47       0.00000000
  48      -0.73378574
  49       0.00000000
  50      -0.00000000
  51      16.63036630
  52      -0.00000000
  53       0.00000000
  54      -4.64563542
  55       0.00000000
  56       0.00000000
  57       1.28807280
  58       0.75645561
  59       0.75645561
  60       0.00000000
  61      -0.00000000
  62      -0.00000000
  63       2.00313170
  64       2.73100741
  65       2.73100741
  66      -0.00000000
  67       0.00000000
  68      -0.00000000
Ene=     2.77468E-02
Spin= Alpha
Occup=   0.0000000000
   1      -3.05479012
   2      -0.06594682
   3       4.51050278
   4      -2.23760943
   5       0.65340120
   6       0.09814144
   7       0.03192967
   8      -0.03016411
   9      -0.00305192
  10       0.00015505
  11      -0.45457546
  12       0.00000000