[Molden Format]
[Atoms] AU
E+       1       4     0.00000000     0.00000000     0.00000000
E+       2       4    36.40000000     0.00000000     0.00000000
[GTO]
  1 0
s  1 1.00
   1.0000000000E-04   1.0000000000E+00
s  1 1.00
   3.0000000000E-04   1.0000000000E+00
s  1 1.00
   9.0000000000E-04   1.0000000000E+00
s  1 1.00
   2.7000000000E-03   1.0000000000E+00
s  1 1.00
   8.1000000000E-03   1.0000000000E+00
s  1 1.00
   2.4300000000E-02   1.0000000000E+00
s  1 1.00
   7.2900000000E-02   1.0000000000E+00
s  1 1.00
   2.1870000000E-01   1.0000000000E+00
s  1 1.00
   6.5610000000E-01   1.0000000000E+00
s  1 1.00
   1.9683000000E+00   1.0000000000E+00
p  1 1.00
   1.0000000000E-04   1.0000000000E+00
p  1 1.00
   3.0000000000E-04   1.0000000000E+00
p  1 1.00
   9.0000000000E-04   1.0000000000E+00
p  1 1.00
   2.7000000000E-03   1.0000000000E+00
d  1 1.00
   1.0000000000E-04   1.0000000000E+00
d  1 1.00
   3.0000000000E-04   1.0000000000E+00
 
  2 0
s  1 1.00
   1.0000000000E-04   1.0000000000E+00
s  1 1.00
   3.0000000000E-04   1.0000000000E+00
s  1 1.00
   9.0000000000E-04   1.0000000000E+00
s  1 1.00
   2.7000000000E-03   1.0000000000E+00
s  1 1.00
   8.1000000000E-03   1.0000000000E+00
s  1 1.00
   2.4300000000E-02   1.0000000000E+00
s  1 1.00
   7.2900000000E-02   1.0000000000E+00
s  1 1.00
   2.1870000000E-01   1.0000000000E+00
s  1 1.00
   6.5610000000E-01   1.0000000000E+00
s  1 1.00
   1.9683000000E+00   1.0000000000E+00
p  1 1.00
   1.0000000000E-04   1.0000000000E+00
p  1 1.00
   3.0000000000E-04   1.0000000000E+00
p  1 1.00
   9.0000000000E-04   1.0000000000E+00
p  1 1.00
   2.7000000000E-03   1.0000000000E+00
d  1 1.00
   1.0000000000E-04   1.0000000000E+00
d  1 1.00
   3.0000000000E-04   1.0000000000E+00
 
 
[MO]
Ene=    -3.89238E-03
Spin= Alpha
Occup=   1.0000000000
   1      -0.05469547
   2       0.04475858
   3       0.00720996
   4       0.20816162
   5       0.29196057
   6       0.19536644
   7       0.12159570
   8      -0.09819728
   9      -0.00670155
  10       0.00009215
  11       0.18102777
  12       0.00000000
  13       0.00000000
  14      -0.06176362
  15      -0.00000000
  16      -0.00000000
  17       0.04259454
  18       0.00000000
  19       0.00000000
  20       0.00704594
  21      -0.00000000
  22      -0.00000000
  23       0.05681685
  24      -0.00169795
  25      -0.00169795
  26       0.00000000
  27       0.00000000
  28       0.00000000
  29      -0.03353462
  30      -0.00699709
  31      -0.00699709
  32      -0.00000000
  33      -0.00000000
  34       0.00000000
  35      -0.05469547
  36       0.04475858
  37       0.00720996
  38       0.20816162
  39       0.29196057
  40       0.19536644
  41       0.12159570
  42      -0.09819728
  43      -0.00670155
  44       0.00009215
  45      -0.18102777
  46      -0.00000000
  47      -0.00000000
  48       0.06176362
  49       0.00000000
  50       0.00000000
  51      -0.04259454
  52      -0.00000000
  53       0.00000000
  54      -0.00704594
  55       0.00000000
  56      -0.00000000
  57       0.05681685
  58      -0.00169795
  59      -0.00169795
  60       0.00000000
  61       0.00000000
  62      -0.00000000
  63      -0.03353462
  64      -0.00699709
  65      -0.00699709
  66      -0.00000000
  67       0.00000000
  68       0.00000000
Ene=    -3.51577E-03
Spin= Alpha
Occup=   0.0000000000
   1      -0.00131032
   2      -0.00569059
   3      -0.01945553
   4      -0.27724947
   5      -0.28249153
   6      -0.21382670
   7      -0.12381311
   8       0.10156273
   9       0.00722292
  10      -0.00013670
  11       0.00614293
  12       0.00000000
  13       0.00000000
  14       0.01323400
  15      -0.00000000
  16       0.00000000
  17      -0.04465616
  18      -0.00000000
  19      -0.00000000
  20      -0.03219395
  21       0.00000000
  22       0.00000000
  23       0.00949171
  24       0.00378475
  25       0.00378475
  26       0.00000000
  27      -0.00000000
  28       0.00000000
  29       0.01626146
  30       0.02184144
  31       0.02184144
  32      -0.00000000
  33       0.00000000
  34      -0.00000000
  35       0.00131032
  36       0.00569059
  37       0.01945553
  38       0.27724947
  39       0.28249153
  40       0.21382670
  41       0.12381311
  42      -0.10156273
  43      -0.00722292
  44       0.00013670
  45       0.00614293
  46      -0.00000000
  47      -0.00000000
  48       0.01323400
  49       0.00000000
  50       0.00000000
  51      -0.04465616
  52      -0.00000000
  53      -0.00000000
  54      -0.03219395
  55       0.00000000
  56       0.00000000
  57      -0.00949171
  58      -0.00378475
  59      -0.00378475
  60       0.00000000
  61       0.00000000
  62       0.00000000
  63      -0.01626146
  64      -0.02184144
  65      -0.02184144
  66      -0.00000000
  67      -0.00000000
  68      -0.00000000
Ene=     4.17416E-03
Spin= Alpha
Occup=   0.0000000000
   1      -0.69136075
   2      -0.05705162
   3       1.03387327
   4      -0.68964945
   5      -0.05400545
   6      -0.11203448
   7      -0.03677848
   8       0.03497795
   9       0.00335313
  10      -0.00016681
  11       1.41796799
  12      -0.00000000
  13       0.00000000
  14      -0.44507934
  15       0.00000000
  16       0.00000000
  17       0.47853960
  18      -0.00000000
  19       0.00000000
  20      -0.04770000
  21      -0.00000000
  22      -0.00000000
  23       0.47792223
  24       0.02530468
  25       0.02530468
  26      -0.00000000
  27       0.00000000
  28       0.00000000
  29      -0.07896206
  30       0.08722656
  31       0.08722656
  32       0.00000000
  33       0.00000000
  34      -0.00000000
  35      -0.69136075
  36      -0.05705162
  37       1.03387327
  38      -0.68964945
  39      -0.05400545
  40      -0.11203448
  41      -0.03677848
  42       0.03497795
  43       0.00335313
  44      -0.00016681
  45      -1.41796799
  46       0.00000000
  47      -0.00000000
  48       0.44507934
  49      -0.00000000
  50      -0.00000000
  51      -0.47853960
  52       0.00000000
  53       0.00000000
  54       0.04770000
  55      -0.00000000
  56      -0.00000000
  57       0.47792223
  58       0.02530468
  59       0.02530468
  60      -0.00000000
  61       0.00000000
  62      -0.00000000
  63      -0.07896206
  64       0.08722656
  65       0.08722656
  66       0.00000000
  67       0.00000000
  68       0.00000000
Ene=     5.97233E-03
Spin= Alpha
Occup=   0.0000000000
   1      -0.00000000
   2       0.00000000
   3       0.00000000
   4      -0.00000000
   5       0.00000000
   6      -0.00000000
   7       0.00000000
   8      -0.00000000
   9       0.00000000
  10      -0.00000000
  11       0.00000000
  12      -0.01536400
  13       0.02227835
  14      -0.00000000
  15       0.04810007
  16      -0.06974682
  17       0.00000000
  18      -0.16873372
  19       0.24466994
  20      -0.00000000
  21      -0.22821307
  22       0.33091713
  23       0.00000000
  24       0.00000000
  25       0.00000000
  26       0.00425967
  27      -0.00617667
  28      -0.00000000
  29      -0.00000000
  30      -0.00000000
  31      -0.00000000
  32      -0.01871267
  33       0.02713404
  34      -0.00000000
  35      -0.00000000
  36       0.00000000
  37      -0.00000000
  38      -0.00000000
  39       0.00000000
  40      -0.00000000
  41       0.00000000
  42      -0.00000000
  43      -0.00000000
  44       0.00000000
  45      -0.00000000
  46      -0.01536400
  47       0.02227835
  48       0.00000000
  49       0.04810007
  50      -0.06974682
  51      -0.00000000
  52      -0.16873372
  53       0.24466994
  54       0.00000000
  55      -0.22821307
  56       0.33091713
  57       0.00000000
  58      -0.00000000
  59      -0.00000000
  60      -0.00425967
  61       0.00617667
  62      -0.00000000
  63      -0.00000000
  64      -0.00000000
  65      -0.00000000
  66       0.01871267
  67      -0.02713404
  68       0.00000000
Ene=     5.97233E-03
Spin= Alpha
Occup=   0.0000000000
   1      -0.00000000
   2       0.00000000
   3       0.00000000
   4       0.00000000
   5      -0.00000000
   6      -0.00000000
   7       0.00000000
   8      -0.00000000
   9       0.00000000
  10      -0.00000000
  11       0.00000000
  12      -0.02227835
  13      -0.01536400
  14      -0.00000000
  15       0.06974682
  16       0.04810007
  17       0.00000000
  18      -0.24466994
  19      -0.16873372
  20       0.00000000
  21      -0.33091713
  22      -0.22821307
  23       0.00000000
  24      -0.00000000
  25      -0.00000000
  26       0.00617667
  27       0.00425967
  28       0.00000000
  29      -0.00000000
  30      -0.00000000
  31      -0.00000000
  32      -0.02713404
  33      -0.01871267
  34      -0.00000000
  35      -0.00000000
  36       0.00000000
  37      -0.00000000
  38       0.00000000
  39       0.00000000
  40      -0.00000000
  41       0.00000000
  42      -0.00000000
  43       0.00000000
  44      -0.00000000
  45      -0.00000000
  46      -0.02227835
  47      -0.01536400
  48       0.00000000
  49       0.06974682
  50       0.04810007
  51       0.00000000
  52      -0.24466994
  53      -0.16873372
  54       0.00000000
  55      -0.33091713
  56      -0.22821307
  57       0.00000000
  58       0.00000000
  59       0.00000000
  60      -0.00617667
  61      -0.00425967
  62      -0.00000000
  63      -0.00000000
  64       0.00000000
  65       0.00000000
  66       0.02713404
  67       0.01871267
  68      -0.00000000
Ene=     8.37060E-03
Spin= Alpha
Occup=   0.0000000000
   1       0.00000000
   2      -0.00000000
   3       0.00000000
   4      -0.00000000
   5       0.00000000
   6       0.00000000
   7      -0.00000000
   8       0.00000000
   9      -0.00000000
  10      -0.00000000
  11       0.00000000
  12      -0.36597871
  13      -0.16104327
  14      -0.00000000
  15       0.02100139
  16       0.00924134
  17       0.00000000
  18      -0.08215952
  19      -0.03615302
  20      -0.00000000
  21      -0.67120236
  22      -0.29535222
  23       0.00000000
  24       0.00000000
  25       0.00000000
  26      -0.06394289
  27      -0.02813708
  28       0.00000000
  29      -0.00000000
  30       0.00000000
  31      -0.00000000
  32      -0.00719864
  33      -0.00316765
  34       0.00000000
  35      -0.00000000
  36       0.00000000
  37      -0.00000000
  38      -0.00000000
  39       0.00000000
  40      -0.00000000
  41       0.00000000
  42      -0.00000000
  43      -0.00000000
  44       0.00000000
  45      -0.00000000
  46       0.36597871
  47       0.16104327
  48      -0.00000000
  49      -0.02100139
  50      -0.00924134
  51      -0.00000000
  52       0.08215952
  53       0.03615302
  54       0.00000000
  55       0.67120236
  56       0.29535222
  57       0.00000000
  58      -0.00000000
  59      -0.00000000
  60      -0.06394289
  61      -0.02813708
  62       0.00000000
  63      -0.00000000
  64      -0.00000000
  65      -0.00000000
  66      -0.00719864
  67      -0.00316765
  68      -0.00000000
Ene=     8.37060E-03
Spin= Alpha
Occup=   0.0000000000
   1      -0.00000000
   2       0.00000000
   3      -0.00000000
   4       0.00000000
   5       0.00000000
   6      -0.00000000
   7       0.00000000
   8      -0.00000000
   9       0.00000000
  10      -0.00000000
  11      -0.00000000
  12      -0.16104327
  13       0.36597871
  14       0.00000000
  15       0.00924134
  16      -0.02100139
  17      -0.00000000
  18      -0.03615302
  19       0.08215952
  20      -0.00000000
  21      -0.29535222
  22       0.67120236
  23      -0.00000000
  24      -0.00000000
  25      -0.00000000
  26      -0.02813708
  27       0.06394289
  28       0.00000000
  29       0.00000000
  30      -0.00000000
  31      -0.00000000
  32      -0.00316765
  33       0.00719864
  34      -0.00000000
  35       0.00000000
  36      -0.00000000
  37       0.00000000
  38       0.00000000
  39      -0.00000000
  40       0.00000000
  41      -0.00000000
  42       0.00000000
  43       0.00000000
  44      -0.00000000
  45       0.00000000
  46       0.16104327
  47      -0.36597871
  48       0.00000000
  49      -0.00924134
  50       0.02100139
  51      -0.00000000
  52       0.03615302
  53      -0.08215952
  54      -0.00000000
  55       0.29535222
  56      -0.67120236
  57      -0.00000000
  58      -0.00000000
  59      -0.00000000
  60      -0.02813708
  61       0.06394289
  62      -0.00000000
  63      -0.00000000
  64      -0.00000000
  65      -0.00000000
  66      -0.00316765
  67       0.00719864
  68       0.00000000
Ene=     9.21232E-03
Spin= Alpha
Occup=   0.0000000000
   1      -0.02730741
   2       0.00473426
   3       2.71933463
   4       0.18069118
   5      -0.56438925
   6      -0.01852089
   7      -0.08058949
   8       0.05297728
   9       0.00163524
  10       0.00024228
  11       0.13659497
  12       0.00000000
  13      -0.00000000
  14      -0.02810182
  15      -0.00000000
  16       0.00000000
  17       1.04506764
  18       0.00000000
  19      -0.00000000
  20       0.30558187
  21       0.00000000
  22       0.00000000
  23       0.10359353
  24       0.18340791
  25       0.18340791
  26       0.00000000
  27      -0.00000000
  28      -0.00000000
  29       0.26178144
  30       0.11627434
  31       0.11627434
  32      -0.00000000
  33       0.00000000
  34       0.00000000
  35       0.02730741
  36      -0.00473426
  37      -2.71933463
  38      -0.18069118
  39       0.56438925
  40       0.01852089
  41       0.08058949
  42      -0.05297728
  43      -0.00163524
  44      -0.00024228
  45       0.13659497
  46      -0.00000000
  47       0.00000000
  48      -0.02810182
  49       0.00000000
  50      -0.00000000
  51       1.04506764
  52      -0.00000000
  53       0.00000000
  54       0.30558187
  55       0.00000000
  56      -0.00000000
  57      -0.10359353
  58      -0.18340791
  59      -0.18340791
  60       0.00000000
  61      -0.00000000
  62      -0.00000000
  63      -0.26178144
  64      -0.11627434
  65      -0.11627434
  66      -0.00000000
  67       0.00000000
  68       0.00000000
Ene=     9.59220E-03
Spin= Alpha
Occup=   0.0000000000
   1      -0.37431564
   2       0.27614387
   3       0.43461088
   4      -0.90182497
   5       0.47259214
   6      -0.05192491
   7       0.05441903
   8      -0.02920054
   9       0.00047806
  10      -0.00032998
  11       1.43124919
  12      -0.00000000
  13      -0.00000000
  14      -0.39320723
  15       0.00000000
  16       0.00000000
  17       0.48328284
  18      -0.00000000
  19      -0.00000000
  20      -0.72100154
  21       0.00000000
  22       0.00000000
  23       0.43768215
  24      -0.02180436
  25      -0.02180436
  26      -0.00000000
  27      -0.00000000
  28      -0.00000000
  29      -0.21961310
  30      -0.07475052
  31      -0.07475052
  32       0.00000000
  33       0.00000000
  34       0.00000000
  35      -0.37431564
  36       0.27614387
  37       0.43461088
  38      -0.90182497
  39       0.47259214
  40      -0.05192491
  41       0.05441903
  42      -0.02920054
  43       0.00047806
  44      -0.00032998
  45      -1.43124919
  46       0.00000000
  47       0.00000000
  48       0.39320723
  49      -0.00000000
  50      -0.00000000
  51      -0.48328284
  52      -0.00000000
  53       0.00000000
  54       0.72100154
  55      -0.00000000
  56      -0.00000000
  57       0.43768215
  58      -0.02180436
  59      -0.02180436
  60      -0.00000000
  61      -0.00000000
  62       0.00000000
  63      -0.21961310
  64      -0.07475052
  65      -0.07475052
  66       0.00000000
  67       0.00000000
  68      -0.00000000
Ene=     1.31726E-02
Spin= Alpha
Occup=   0.0000000000
   1      -0.00000000
   2       0.00000000
   3       0.00000000
   4      -0.00000000
   5       0.00000000
   6      -0.00000000
   7       0.00000000
   8      -0.00000000
   9      -0.00000000
  10       0.00000000
  11       0.00000000
  12      -0.06862907
  13       0.00698349
  14      -0.00000000
  15       0.22705598
  16      -0.02310454
  17       0.00000000
  18      -0.96812863
  19       0.09851390
  20       0.00000000
  21       0.93077862
  22      -0.09471328
  23       0.00000000
  24      -0.00000000
  25      -0.00000000
  26       0.01049551
  27      -0.00106799
  28       0.00000000
  29      -0.00000000
  30      -0.00000000
  31      -0.00000000
  32      -0.07283708
  33       0.00741169
  34      -0.00000000
  35      -0.00000000
  36       0.00000000
  37       0.00000000
  38      -0.00000000
  39       0.00000000
  40       0.00000000
  41       0.00000000
  42      -0.00000000
  43      -0.00000000
  44      -0.00000000
  45      -0.00000000
  46      -0.06862907
  47       0.00698349
  48       0.00000000
  49       0.22705598
  50      -0.02310454
  51      -0.00000000
  52      -0.96812863
  53       0.09851390
  54      -0.00000000
  55       0.93077862
  56      -0.09471328
  57       0.00000000
  58      -0.00000000
  59      -0.00000000
  60      -0.01049551
  61       0.00106799
  62      -0.00000000
  63      -0.00000000
  64      -0.00000000
  65      -0.00000000
  66       0.07283708
  67      -0.00741169
  68       0.00000000
Ene=     1.31726E-02
Spin= Alpha
Occup=   0.0000000000
   1      -0.00000000
   2       0.00000000
   3       0.00000000
   4       0.00000000
   5      -0.00000000
   6       0.00000000
   7      -0.00000000
   8       0.00000000
   9       0.00000000
  10      -0.00000000
  11       0.00000000
  12      -0.00698349
  13      -0.06862907
  14      -0.00000000
  15       0.02310454
  16       0.22705598
  17      -0.00000000
  18      -0.09851390
  19      -0.96812863
  20      -0.00000000
  21       0.09471328
  22       0.93077862
  23       0.00000000
  24       0.00000000
  25       0.00000000
  26       0.00106799
  27       0.01049551
  28      -0.00000000
  29      -0.00000000
  30       0.00000000
  31       0.00000000
  32      -0.00741169
  33      -0.07283708
  34       0.00000000
  35      -0.00000000
  36       0.00000000
  37      -0.00000000
  38       0.00000000
  39      -0.00000000
  40       0.00000000
  41      -0.00000000
  42       0.00000000
  43      -0.00000000
  44       0.00000000
  45      -0.00000000
  46      -0.00698349
  47      -0.06862907
  48       0.00000000
  49       0.02310454
  50       0.22705598
  51       0.00000000
  52      -0.09851390
  53      -0.96812863
  54       0.00000000
  55       0.09471328
  56       0.93077862
  57       0.00000000
  58      -0.00000000
  59      -0.00000000
  60      -0.00106799
  61      -0.01049551
  62       0.00000000
  63      -0.00000000
  64      -0.00000000
  65      -0.00000000
  66       0.00741169
  67       0.07283708
  68      -0.00000000
Ene=     1.33472E-02
Spin= Alpha
Occup=   0.0000000000
   1      -0.22691384
   2       0.16151818
   3       0.30770576
   4      -1.55525449
   5       0.93150273
   6       0.00248323
   7       0.10376567
   8      -0.06607712
   9      -0.00166085
  10      -0.00035889
  11       1.02109113
  12      -0.00000000
  13      -0.00000000
  14      -0.16266079
  15       0.00000000
  16       0.00000000
  17       0.36821796
  18       0.00000000
  19      -0.00000000
  20       0.14038818
  21      -0.00000000
  22       0.00000000
  23       0.30308734
  24      -0.02044503
  25      -0.02044503
  26      -0.00000000
  27      -0.00000000
  28       0.00000000
  29      -0.10288202
  30      -0.07467309
  31      -0.07467309
  32       0.00000000
  33       0.00000000
  34      -0.00000000
  35      -0.22691384
  36       0.16151818
  37       0.30770576
  38      -1.55525449
  39       0.93150273
  40       0.00248323
  41       0.10376567
  42      -0.06607712
  43      -0.00166085
  44      -0.00035889
  45      -1.02109113
  46       0.00000000
  47       0.00000000
  48       0.16266079
  49      -0.00000000
  50      -0.00000000
  51      -0.36821796
  52       0.00000000
  53      -0.00000000
  54      -0.14038818
  55      -0.00000000
  56       0.00000000
  57       0.30308734
  58      -0.02044503
  59      -0.02044503
  60      -0.00000000
  61      -0.00000000
  62      -0.00000000
  63      -0.10288202
  64      -0.07467309
  65      -0.07467309
  66       0.00000000
  67       0.00000000
  68       0.00000000
Ene=     1.39695E-02
Spin= Alpha
Occup=   0.0000000000
   1       0.01547604
   2       0.02917970
   3      -0.53377833
   4      -0.03707542
   5       0.03423412
   6      -0.07420367
   7      -0.00340451
   8       0.00958526
   9       0.00182561
  10      -0.00017267
  11      -0.07499267
  12       0.00000000
  13      -0.00000000
  14      -0.05715615
  15      -0.00000000
  16       0.00000000
  17      -0.01352095
  18       0.00000000
  19      -0.00000000
  20      -1.09433303
  21      -0.00000000
  22       0.00000000
  23      -0.08515676
  24      -0.07775843
  25      -0.07775843
  26       0.00000000
  27      -0.00000000
  28      -0.00000000
  29      -0.16182578
  30      -0.15005302
  31      -0.15005302
  32      -0.00000000
  33       0.00000000
  34       0.00000000
  35      -0.01547604
  36      -0.02917970
  37       0.53377833
  38       0.03707542
  39      -0.03423412
  40       0.07420367
  41       0.00340451
  42      -0.00958526
  43      -0.00182561
  44       0.00017267
  45      -0.07499267
  46      -0.00000000
  47       0.00000000
  48      -0.05715615
  49       0.00000000
  50      -0.00000000
  51      -0.01352095
  52       0.00000000
  53       0.00000000
  54      -1.09433303
  55      -0.00000000
  56      -0.00000000
  57       0.08515676
  58       0.07775843
  59       0.07775843
  60       0.00000000
  61      -0.00000000
  62       0.00000000
  63       0.16182578
  64       0.15005302
  65       0.15005302
  66      -0.00000000
  67       0.00000000
  68      -0.00000000
Ene=     1.79454E-02
Spin= Alpha
Occup=   0.0000000000
   1      -0.01543755
   2       0.05115562
   3       4.71581500
   4      -2.83951663
   5       1.25389787
   6      -0.06684173
   7       0.11188120
   8      -0.06433982
   9      -0.00022503
  10      -0.00054948
  11       0.08152198
  12       0.00000000
  13       0.00000000
  14      -0.09584300
  15      -0.00000000
  16      -0.00000000
  17       1.96484213
  18       0.00000000
  19       0.00000000
  20      -0.30002797
  21      -0.00000000
  22      -0.00000000
  23       0.01534323
  24       0.14412061
  25       0.14412061
  26       0.00000000
  27       0.00000000
  28       0.00000000
  29       0.15495231
  30      -0.04837812
  31      -0.04837812
  32      -0.00000000
  33      -0.00000000
  34      -0.00000000
  35       0.01543755
  36      -0.05115562
  37      -4.71581500
  38       2.83951663
  39      -1.25389787
  40       0.06684173
  41      -0.11188120
  42       0.06433982
  43       0.00022503
  44       0.00054948
  45       0.08152198
  46      -0.00000000
  47      -0.00000000
  48      -0.09584300
  49       0.00000000
  50       0.00000000
  51       1.96484213
  52      -0.00000000
  53      -0.00000000
  54      -0.30002797
  55       0.00000000
  56       0.00000000
  57      -0.01534323
  58      -0.14412061
  59      -0.14412061
  60       0.00000000
  61       0.00000000
  62      -0.00000000
  63      -0.15495231
  64       0.04837812
  65       0.04837812
  66      -0.00000000
  67      -0.00000000
  68       0.00000000
Ene=     1.94690E-02
Spin= Alpha
Occup=   0.0000000000
   1       0.00000000
   2      -0.00000000
   3       0.00000000
   4      -0.00000000
   5       0.00000000
   6      -0.00000000
   7       0.00000000
   8      -0.00000000
   9       0.00000000
  10      -0.00000000
  11       0.00000000
  12      -6.96852811
  13      -3.46716297
  14      -0.00000000
  15       1.53079346
  16       0.76164009
  17       0.00000000
  18      -1.58188842
  19      -0.78706218
  20      -0.00000000
  21       0.75222625
  22       0.37426713
  23       0.00000000
  24       0.00000000
  25       0.00000000
  26      -1.25153949
  27      -0.62269841
  28      -0.00000000
  29      -0.00000000
  30       0.00000000
  31       0.00000000
  32       0.30792648
  33       0.15320757
  34       0.00000000
  35      -0.00000000
  36       0.00000000
  37      -0.00000000
  38       0.00000000
  39      -0.00000000
  40      -0.00000000
  41      -0.00000000
  42       0.00000000
  43       0.00000000
  44      -0.00000000
  45       0.00000000
  46       6.96852811
  47       3.46716297
  48      -0.00000000
  49      -1.53079346
  50      -0.76164009
  51       0.00000000
  52       1.58188842
  53       0.78706218
  54      -0.00000000
  55      -0.75222625
  56      -0.37426713
  57      -0.00000000
  58      -0.00000000
  59      -0.00000000
  60      -1.25153949
  61      -0.62269841
  62       0.00000000
  63      -0.00000000
  64       0.00000000
  65       0.00000000
  66       0.30792648
  67       0.15320757
  68      -0.00000000
Ene=     1.94690E-02
Spin= Alpha
Occup=   0.0000000000
   1       0.00000000
   2      -0.00000000
   3       0.00000000
   4      -0.00000000
   5       0.00000000
   6      -0.00000000
   7       0.00000000
   8      -0.00000000
   9      -0.00000000
  10      -0.00000000
  11      -0.00000000
  12       3.46716297
  13      -6.96852811
  14      -0.00000000
  15      -0.76164009
  16       1.53079346
  17      -0.00000000
  18       0.78706218
  19      -1.58188842
  20       0.00000000
  21      -0.37426713
  22       0.75222625
  23      -0.00000000
  24       0.00000000
  25       0.00000000
  26       0.62269841
  27      -1.25153949
  28      -0.00000000
  29      -0.00000000
  30       0.00000000
  31       0.00000000
  32      -0.15320757
  33       0.30792648
  34       0.00000000
  35      -0.00000000
  36       0.00000000
  37       0.00000000
  38      -0.00000000
  39       0.00000000
  40       0.00000000
  41      -0.00000000
  42       0.00000000
  43      -0.00000000
  44       0.00000000
  45       0.00000000
  46      -3.46716297
  47       6.96852811
  48      -0.00000000
  49       0.76164009
  50      -1.53079346
  51       0.00000000
  52      -0.78706218
  53       1.58188842
  54      -0.00000000
  55       0.37426713
  56      -0.75222625
  57      -0.00000000
  58       0.00000000
  59       0.00000000
  60       0.62269841
  61      -1.25153949
  62       0.00000000
  63       0.00000000
  64       0.00000000
  65       0.00000000
  66      -0.15320757
  67       0.30792648
  68      -0.00000000
Ene=     2.39711E-02
Spin= Alpha
Occup=   0.0000000000
   1      -1.39356258
   2       1.52027502
   3      -1.80791996
   4       1.21543084
   5      -0.43674463
   6      -0.04254770
   7      -0.03231499
   8       0.02463588
   9       0.00151865
  10       0.00000981
  11       4.97890094
  12      -0.00000000
  13       0.00000000
  14      -1.33127676
  15       0.00000000
  16      -0.00000000
  17       1.24198857
  18       0.00000000
  19       0.00000000
  20      -0.62711723
  21      -0.00000000
  22       0.00000000
  23       1.54796158
  24      -0.06034641
  25      -0.06034641
  26      -0.00000000
  27       0.00000000
  28       0.00000000
  29      -0.82906112
  30      -0.30514406
  31      -0.30514406
  32       0.00000000
  33      -0.00000000
  34      -0.00000000
  35      -1.39356258
  36       1.52027502
  37      -1.80791996
  38       1.21543084
  39      -0.43674463
  40      -0.04254770
  41      -0.03231499
  42       0.02463588
  43       0.00151865
  44       0.00000981
  45      -4.97890094
  46       0.00000000
  47      -0.00000000
  48       1.33127676
  49      -0.00000000
  50       0.00000000
  51      -1.24198857
  52       0.00000000
  53      -0.00000000
  54       0.62711723
  55       0.00000000
  56      -0.00000000
  57       1.54796158
  58      -0.06034641
  59      -0.06034641
  60      -0.00000000
  61       0.00000000
  62      -0.00000000
  63      -0.82906112
  64      -0.30514406
  65      -0.30514406
  66       0.00000000
  67      -0.00000000
  68       0.00000000
Ene=     2.63745E-02
Spin= Alpha
Occup=   0.0000000000
   1      -0.06901124
   2      -0.33838093
   3      -2.20904077
   4      -0.10882543
   5       0.04423373
   6       0.03532500
   7       0.00418327
   8      -0.00594049
   9      -0.00082352
  10       0.00006157
  11       0.32213492
  12      -0.00000000
  13      -0.00000000
  14       0.75143256
  15       0.00000000
  16       0.00000000
  17      -3.58234468
  18      -0.00000000
  19      -0.00000000
  20       0.85671110
  21      -0.00000000
  22      -0.00000000
  23       0.51326764
  24       0.21560207
  25       0.21560207
  26      -0.00000000
  27      -0.00000000
  28       0.00000000
  29       0.88352344
  30       1.14023942
  31       1.14023942
  32       0.00000000
  33       0.00000000
  34      -0.00000000
  35       0.06901124
  36       0.33838093
  37       2.20904077
  38       0.10882543
  39      -0.04423373
  40      -0.03532500
  41      -0.00418327
  42       0.00594049
  43       0.00082352
  44      -0.00006157
  45       0.32213492
  46       0.00000000
  47       0.00000000
  48       0.75143256
  49      -0.00000000
  50      -0.00000000
  51      -3.58234468
  52       0.00000000
  53       0.00000000
  54       0.85671110
  55      -0.00000000
  56      -0.00000000
  57      -0.51326764
  58      -0.21560207
  59      -0.21560207
  60      -0.00000000
  61      -0.00000000
  62      -0.00000000
  63      -0.88352344
  64      -1.14023942
  65      -1.14023942
  66       0.00000000
  67       0.00000000
  68       0.00000000
Ene=     2.93439E-02
Spin= Alpha
Occup=   0.0000000000
   1       5.23680805
   2       2.26809380
   3      -4.78453219
   4       2.10797884
   5      -0.43271335
   6      -0.11923368
   7      -0.01940268
   8       0.02407999
   9       0.00314271
  10      -0.00022204
  11      -4.58355348
  12       0.00000000