[Molden Format]
[Title]
 Molden2AIM, Version 3.1.0 (02/25/2015)           Time: Thu Oct 17 19:54:49 2024

[Atoms] AU
E+       1       4     0.00000000     0.00000000     0.00000000
E+       2       4    37.80000000     0.00000000     0.00000000
[GTO]
    1 0
 S   1 1.0
    0.1000000000D-03      0.1000000000D+01
 S   1 1.0
    0.3000000000D-03      0.1000000000D+01
 S   1 1.0
    0.9000000000D-03      0.1000000000D+01
 S   1 1.0
    0.2700000000D-02      0.1000000000D+01
 S   1 1.0
    0.8100000000D-02      0.1000000000D+01
 S   1 1.0
    0.2430000000D-01      0.1000000000D+01
 S   1 1.0
    0.7290000000D-01      0.1000000000D+01
 S   1 1.0
    0.2187000000D+00      0.1000000000D+01
 S   1 1.0
    0.6561000000D+00      0.1000000000D+01
 S   1 1.0
    0.1968300000D+01      0.1000000000D+01
 P   1 1.0
    0.1000000000D-03      0.1000000000D+01
 P   1 1.0
    0.3000000000D-03      0.1000000000D+01
 P   1 1.0
    0.9000000000D-03      0.1000000000D+01
 P   1 1.0
    0.2700000000D-02      0.1000000000D+01
 D   1 1.0
    0.1000000000D-03      0.1000000000D+01
 D   1 1.0
    0.3000000000D-03      0.1000000000D+01

    2 0
 S   1 1.0
    0.1000000000D-03      0.1000000000D+01
 S   1 1.0
    0.3000000000D-03      0.1000000000D+01
 S   1 1.0
    0.9000000000D-03      0.1000000000D+01
 S   1 1.0
    0.2700000000D-02      0.1000000000D+01
 S   1 1.0
    0.8100000000D-02      0.1000000000D+01
 S   1 1.0
    0.2430000000D-01      0.1000000000D+01
 S   1 1.0
    0.7290000000D-01      0.1000000000D+01
 S   1 1.0
    0.2187000000D+00      0.1000000000D+01
 S   1 1.0
    0.6561000000D+00      0.1000000000D+01
 S   1 1.0
    0.1968300000D+01      0.1000000000D+01
 P   1 1.0
    0.1000000000D-03      0.1000000000D+01
 P   1 1.0
    0.3000000000D-03      0.1000000000D+01
 P   1 1.0
    0.9000000000D-03      0.1000000000D+01
 P   1 1.0
    0.2700000000D-02      0.1000000000D+01
 D   1 1.0
    0.1000000000D-03      0.1000000000D+01
 D   1 1.0
    0.3000000000D-03      0.1000000000D+01


[MO]
 Ene=         -0.00387189
 Spin= Alpha
 Occup=        1.00000000
    1        0.0420165700
    2       -0.0310146700
    3       -0.0123382400
    4       -0.1992583700
    5       -0.2988172800
    6       -0.1973942200
    7       -0.1224492500
    8        0.0989245300
    9        0.0067630500
   10       -0.0000942800
   11       -0.1335504600
   12       -0.0000000000
   13       -0.0000000000
   14        0.0443557500
   15       -0.0000000000
   16       -0.0000000000
   17       -0.0349815000
   18       -0.0000000000
   19        0.0000000000
   20       -0.0211044100
   21        0.0000000000
   22       -0.0000000000
   23       -0.0435081600
   24        0.0012833400
   25        0.0012833400
   26       -0.0000000000
   27       -0.0000000000
   28       -0.0000000000
   29        0.0239303300
   30        0.0051324700
   31        0.0051324700
   32       -0.0000000000
   33       -0.0000000000
   34        0.0000000000
   35        0.0420165700
   36       -0.0310146700
   37       -0.0123382400
   38       -0.1992583700
   39       -0.2988172800
   40       -0.1973942200
   41       -0.1224492500
   42        0.0989245300
   43        0.0067630500
   44       -0.0000942800
   45        0.1335504600
   46        0.0000000000
   47       -0.0000000000
   48       -0.0443557500
   49        0.0000000000
   50        0.0000000000
   51        0.0349815000
   52       -0.0000000000
   53        0.0000000000
   54        0.0211044100
   55        0.0000000000
   56       -0.0000000000
   57       -0.0435081600
   58        0.0012833400
   59        0.0012833400
   60       -0.0000000000
   61        0.0000000000
   62        0.0000000000
   63        0.0239303300
   64        0.0051324700
   65        0.0051324700
   66       -0.0000000000
   67       -0.0000000000
   68       -0.0000000000
 Ene=         -0.00354997
 Spin= Alpha
 Occup=        0.00000000
    1        0.0007201800
    2        0.0036492700
    3        0.0130482300
    4        0.2665330500
    5        0.2861140200
    6        0.2156244200
    7        0.1241720400
    8       -0.1019455700
    9       -0.0072679700
   10        0.0001395600
   11       -0.0032134800
   12       -0.0000000000
   13       -0.0000000000
   14       -0.0084632600
   15       -0.0000000000
   16        0.0000000000
   17        0.0277456600
   18        0.0000000000
   19       -0.0000000000
   20        0.0501090000
   21       -0.0000000000
   22        0.0000000000
   23       -0.0052498000
   24       -0.0014767900
   25       -0.0014767900
   26       -0.0000000000
   27       -0.0000000000
   28        0.0000000000
   29       -0.0088782700
   30       -0.0126565100
   31       -0.0126565100
   32       -0.0000000000
   33        0.0000000000
   34       -0.0000000000
   35       -0.0007201800
   36       -0.0036492700
   37       -0.0130482300
   38       -0.2665330500
   39       -0.2861140200
   40       -0.2156244200
   41       -0.1241720400
   42        0.1019455700
   43        0.0072679700
   44       -0.0001395600
   45       -0.0032134800
   46        0.0000000000
   47        0.0000000000
   48       -0.0084632600
   49       -0.0000000000
   50       -0.0000000000
   51        0.0277456600
   52        0.0000000000
   53       -0.0000000000
   54        0.0501090000
   55       -0.0000000000
   56        0.0000000000
   57        0.0052498000
   58        0.0014767900
   59        0.0014767900
   60       -0.0000000000
   61        0.0000000000
   62       -0.0000000000
   63        0.0088782700
   64        0.0126565100
   65        0.0126565100
   66        0.0000000000
   67       -0.0000000000
   68        0.0000000000
 Ene=          0.00421606
 Spin= Alpha
 Occup=        0.00000000
    1       -0.6726432900
    2       -0.0736884800
    3        1.0148165900
    4       -0.6540953400
    5       -0.0604197600
    6       -0.1131947200
    7       -0.0374084200
    8        0.0354725100
    9        0.0033842100
   10       -0.0001666900
   11        1.3056003100
   12       -0.0000000000
   13       -0.0000000000
   14       -0.4104118400
   15        0.0000000000
   16        0.0000000000
   17        0.4721124800
   18       -0.0000000000
   19       -0.0000000000
   20       -0.0453404000
   21        0.0000000000
   22        0.0000000000
   23        0.4585971000
   24        0.0259375700
   25        0.0259375700
   26       -0.0000000000
   27       -0.0000000000
   28       -0.0000000000
   29       -0.0632346500
   30        0.0886191500
   31        0.0886191500
   32        0.0000000000
   33        0.0000000000
   34        0.0000000000
   35       -0.6726432900
   36       -0.0736884800
   37        1.0148165900
   38       -0.6540953400
   39       -0.0604197600
   40       -0.1131947200
   41       -0.0374084200
   42        0.0354725100
   43        0.0033842100
   44       -0.0001666900
   45       -1.3056003100
   46        0.0000000000
   47        0.0000000000
   48        0.4104118400
   49       -0.0000000000
   50       -0.0000000000
   51       -0.4721124800
   52        0.0000000000
   53       -0.0000000000
   54        0.0453404000
   55       -0.0000000000
   56        0.0000000000
   57        0.4585971000
   58        0.0259375700
   59        0.0259375700
   60       -0.0000000000
   61       -0.0000000000
   62        0.0000000000
   63       -0.0632346500
   64        0.0886191500
   65        0.0886191500
   66        0.0000000000
   67        0.0000000000
   68       -0.0000000000
 Ene=          0.00635323
 Spin= Alpha
 Occup=        0.00000000
    1       -0.0000000000
    2        0.0000000000
    3       -0.0000000000
    4        0.0000000000
    5        0.0000000000
    6        0.0000000000
    7        0.0000000000
    8       -0.0000000000
    9        0.0000000000
   10       -0.0000000000
   11        0.0000000000
   12        0.0094705000
   13        0.0259807800
   14       -0.0000000000
   15       -0.0289654800
   16       -0.0794621400
   17       -0.0000000000
   18        0.0999888200
   19        0.2743032700
   20       -0.0000000000
   21        0.1414726700
   22        0.3881075300
   23        0.0000000000
   24        0.0000000000
   25        0.0000000000
   26       -0.0037572100
   27       -0.0103073100
   28        0.0000000000
   29       -0.0000000000
   30       -0.0000000000
   31       -0.0000000000
   32        0.0124578800
   33        0.0341761900
   34       -0.0000000000
   35       -0.0000000000
   36        0.0000000000
   37        0.0000000000
   38       -0.0000000000
   39        0.0000000000
   40       -0.0000000000
   41        0.0000000000
   42       -0.0000000000
   43        0.0000000000
   44       -0.0000000000
   45       -0.0000000000
   46        0.0094705000
   47        0.0259807800
   48        0.0000000000
   49       -0.0289654800
   50       -0.0794621400
   51       -0.0000000000
   52        0.0999888200
   53        0.2743032700
   54        0.0000000000
   55        0.1414726700
   56        0.3881075300
   57        0.0000000000
   58       -0.0000000000
   59       -0.0000000000
   60        0.0037572100
   61        0.0103073100
   62       -0.0000000000
   63       -0.0000000000
   64       -0.0000000000
   65       -0.0000000000
   66       -0.0124578800
   67       -0.0341761900
   68        0.0000000000
 Ene=          0.00635323
 Spin= Alpha
 Occup=        0.00000000
    1       -0.0000000000
    2       -0.0000000000
    3        0.0000000000
    4       -0.0000000000
    5       -0.0000000000
    6        0.0000000000
    7       -0.0000000000
    8        0.0000000000
    9       -0.0000000000
   10        0.0000000000
   11        0.0000000000
   12        0.0259807800
   13       -0.0094705000
   14        0.0000000000
   15       -0.0794621400
   16        0.0289654800
   17       -0.0000000000
   18        0.2743032700
   19       -0.0999888200
   20        0.0000000000
   21        0.3881075300
   22       -0.1414726700
   23        0.0000000000
   24        0.0000000000
   25        0.0000000000
   26       -0.0103073100
   27        0.0037572100
   28        0.0000000000
   29        0.0000000000
   30        0.0000000000
   31        0.0000000000
   32        0.0341761900
   33       -0.0124578800
   34       -0.0000000000
   35       -0.0000000000
   36       -0.0000000000
   37        0.0000000000
   38       -0.0000000000
   39        0.0000000000
   40       -0.0000000000
   41        0.0000000000
   42        0.0000000000
   43       -0.0000000000
   44        0.0000000000
   45       -0.0000000000
   46        0.0259807800
   47       -0.0094705000
   48       -0.0000000000
   49       -0.0794621400
   50        0.0289654800
   51       -0.0000000000
   52        0.2743032700
   53       -0.0999888200
   54        0.0000000000
   55        0.3881075300
   56       -0.1414726700
   57        0.0000000000
   58       -0.0000000000
   59        0.0000000000
   60        0.0103073100
   61       -0.0037572100
   62       -0.0000000000
   63        0.0000000000
   64        0.0000000000
   65        0.0000000000
   66       -0.0341761900
   67        0.0124578800
   68        0.0000000000
 Ene=          0.00871163
 Spin= Alpha
 Occup=        0.00000000
    1        0.0000000000
    2        0.0000000000
    3        0.0000000000
    4        0.0000000000
    5       -0.0000000000
    6        0.0000000000
    7       -0.0000000000
    8        0.0000000000
    9       -0.0000000000
   10        0.0000000000
   11       -0.0000000000
   12        0.1884166300
   13        0.0652183800
   14        0.0000000000
   15        0.0236049500
   16        0.0081706000
   17       -0.0000000000
   18        0.0556598600
   19        0.0192660600
   20        0.0000000000
   21        0.6964047100
   22        0.2410529700
   23       -0.0000000000
   24        0.0000000000
   25        0.0000000000
   26        0.0328485200
   27        0.0113701600
   28        0.0000000000
   29        0.0000000000
   30        0.0000000000
   31        0.0000000000
   32        0.0190428000
   33        0.0065914600
   34       -0.0000000000
   35        0.0000000000
   36       -0.0000000000
   37       -0.0000000000
   38        0.0000000000
   39       -0.0000000000
   40       -0.0000000000
   41        0.0000000000
   42       -0.0000000000
   43        0.0000000000
   44       -0.0000000000
   45        0.0000000000
   46       -0.1884166300
   47       -0.0652183800
   48        0.0000000000
   49       -0.0236049500
   50       -0.0081706000
   51        0.0000000000
   52       -0.0556598600
   53       -0.0192660600
   54       -0.0000000000
   55       -0.6964047100
   56       -0.2410529700
   57       -0.0000000000
   58       -0.0000000000
   59       -0.0000000000
   60        0.0328485200
   61        0.0113701600
   62       -0.0000000000
   63       -0.0000000000
   64       -0.0000000000
   65        0.0000000000
   66        0.0190428000
   67        0.0065914600
   68        0.0000000000
 Ene=          0.00871163
 Spin= Alpha
 Occup=        0.00000000
    1        0.0000000000
    2        0.0000000000
    3        0.0000000000
    4       -0.0000000000
    5       -0.0000000000
    6        0.0000000000
    7       -0.0000000000
    8        0.0000000000
    9       -0.0000000000
   10        0.0000000000
   11       -0.0000000000
   12        0.0652183800
   13       -0.1884166300
   14        0.0000000000
   15        0.0081706000
   16       -0.0236049500
   17        0.0000000000
   18        0.0192660600
   19       -0.0556598600
   20        0.0000000000
   21        0.2410529700
   22       -0.6964047100
   23       -0.0000000000
   24        0.0000000000
   25        0.0000000000
   26        0.0113701600
   27       -0.0328485200
   28        0.0000000000
   29        0.0000000000
   30        0.0000000000
   31        0.0000000000
   32        0.0065914600
   33       -0.0190428000
   34       -0.0000000000
   35        0.0000000000
   36       -0.0000000000
   37        0.0000000000
   38       -0.0000000000
   39        0.0000000000
   40        0.0000000000
   41        0.0000000000
   42       -0.0000000000
   43        0.0000000000
   44       -0.0000000000
   45        0.0000000000
   46       -0.0652183800
   47        0.1884166300
   48        0.0000000000
   49       -0.0081706000
   50        0.0236049500
   51       -0.0000000000
   52       -0.0192660600
   53        0.0556598600
   54        0.0000000000
   55       -0.2410529700
   56        0.6964047100
   57       -0.0000000000
   58       -0.0000000000
   59        0.0000000000
   60        0.0113701600
   61       -0.0328485200
   62       -0.0000000000
   63       -0.0000000000
   64        0.0000000000
   65        0.0000000000
   66        0.0065914600
   67       -0.0190428000
   68        0.0000000000
 Ene=          0.00947074
 Spin= Alpha
 Occup=        0.00000000
    1        0.0294038100
    2       -0.0008950800
    3       -2.4690964800
    4       -0.1949542700
    5        0.5677499100
    6        0.0213056400
    7        0.0808576300
    8       -0.0533607100
    9       -0.0016879700
   10       -0.0002385500
   11       -0.1413128800
   12        0.0000000000
   13       -0.0000000000
   14        0.0223223500
   15       -0.0000000000
   16        0.0000000000
   17       -0.9510340000
   18        0.0000000000
   19       -0.0000000000
   20       -0.3433297400
   21       -0.0000000000
   22        0.0000000000
   23       -0.1069498300
   24       -0.1803661000
   25       -0.1803661000
   26        0.0000000000
   27       -0.0000000000
   28        0.0000000000
   29       -0.2630303200
   30       -0.1247035600
   31       -0.1247035600
   32       -0.0000000000
   33        0.0000000000
   34       -0.0000000000
   35       -0.0294038100
   36        0.0008950800
   37        2.4690964800
   38        0.1949542700
   39       -0.5677499100
   40       -0.0213056400
   41       -0.0808576300
   42        0.0533607100
   43        0.0016879700
   44        0.0002385500
   45       -0.1413128800
   46       -0.0000000000
   47        0.0000000000
   48        0.0223223500
   49        0.0000000000
   50       -0.0000000000
   51       -0.9510340000
   52       -0.0000000000
   53        0.0000000000
   54       -0.3433297400
   55        0.0000000000
   56       -0.0000000000
   57        0.1069498300
   58        0.1803661000
   59        0.1803661000
   60        0.0000000000
   61       -0.0000000000
   62        0.0000000000
   63        0.2630303200
   64        0.1247035600
   65        0.1247035600
   66       -0.0000000000
   67        0.0000000000
   68       -0.0000000000
 Ene=          0.00979687
 Spin= Alpha
 Occup=        0.00000000
    1       -0.3898076300
    2        0.2795901600
    3        0.4910276300
    4       -1.0600169000
    5        0.5495202100
    6       -0.0528060700
    7        0.0627850800
    8       -0.0343885600
    9        0.0003856500
   10       -0.0003635300
   11        1.4503933200
   12       -0.0000000000
   13        0.0000000000
   14       -0.3956430600
   15       -0.0000000000
   16        0.0000000000
   17        0.5354857600
   18        0.0000000000
   19       -0.0000000000
   20       -0.7304457100
   21        0.0000000000
   22        0.0000000000
   23        0.4598978800
   24       -0.0234465900
   25       -0.0234465900
   26       -0.0000000000
   27        0.0000000000
   28       -0.0000000000
   29       -0.2229044800
   30       -0.0807253600
   31       -0.0807253600
   32       -0.0000000000
   33        0.0000000000
   34       -0.0000000000
   35       -0.3898076300
   36        0.2795901600
   37        0.4910276300
   38       -1.0600169000
   39        0.5495202100
   40       -0.0528060700
   41        0.0627850800
   42       -0.0343885600
   43        0.0003856500
   44       -0.0003635300
   45       -1.4503933200
   46        0.0000000000
   47       -0.0000000000
   48        0.3956430600
   49        0.0000000000
   50       -0.0000000000
   51       -0.5354857600
   52       -0.0000000000
   53        0.0000000000
   54        0.7304457100
   55       -0.0000000000
   56       -0.0000000000
   57        0.4598978800
   58       -0.0234465900
   59       -0.0234465900
   60       -0.0000000000
   61        0.0000000000
   62        0.0000000000
   63       -0.2229044800
   64       -0.0807253600
   65       -0.0807253600
   66       -0.0000000000
   67        0.0000000000
   68        0.0000000000
 Ene=          0.01357460
 Spin= Alpha
 Occup=        0.00000000
    1       -0.0000000000
    2       -0.0000000000
    3        0.0000000000
    4       -0.0000000000
    5        0.0000000000
    6       -0.0000000000
    7        0.0000000000
    8       -0.0000000000
    9       -0.0000000000
   10        0.0000000000
   11        0.0000000000
   12       -0.0269917500
   13        0.0656693200
   14        0.0000000000
   15        0.0880194200
   16       -0.2141460200
   17        0.0000000000
   18       -0.3722148100
   19        0.9055765600
   20        0.0000000000
   21        0.3564039300
   22       -0.8671096300
   23        0.0000000000
   24       -0.0000000000
   25       -0.0000000000
   26        0.0063888700
   27       -0.0155437300
   28       -0.0000000000
   29        0.0000000000
   30       -0.0000000000
   31       -0.0000000000
   32       -0.0302198400
   33        0.0735230700
   34       -0.0000000000
   35       -0.0000000000
   36       -0.0000000000
   37        0.0000000000
   38       -0.0000000000
   39        0.0000000000
   40       -0.0000000000
   41        0.0000000000
   42       -0.0000000000
   43        0.0000000000
   44       -0.0000000000
   45       -0.0000000000
   46       -0.0269917500
   47        0.0656693200
   48       -0.0000000000
   49        0.0880194200
   50       -0.2141460200
   51       -0.0000000000
   52       -0.3722148100
   53        0.9055765600
   54       -0.0000000000
   55        0.3564039300
   56       -0.8671096300
   57        0.0000000000
   58        0.0000000000
   59        0.0000000000
   60       -0.0063888700
   61        0.0155437300
   62       -0.0000000000
   63        0.0000000000
   64        0.0000000000
   65        0.0000000000
   66        0.0302198400
   67       -0.0735230700
   68        0.0000000000
 Ene=          0.01357460
 Spin= Alpha
 Occup=        0.00000000
    1        0.0000000000
    2        0.0000000000
    3       -0.0000000000
    4        0.0000000000
    5       -0.0000000000
    6        0.0000000000
    7       -0.0000000000
    8        0.0000000000
    9       -0.0000000000
   10        0.0000000000
   11       -0.0000000000
   12       -0.0656693200
   13       -0.0269917500
   14       -0.0000000000
   15        0.2141460200
   16        0.0880194200
   17        0.0000000000
   18       -0.9055765600
   19       -0.3722148100
   20       -0.0000000000
   21        0.8671096300
   22        0.3564039300
   23       -0.0000000000
   24       -0.0000000000
   25       -0.0000000000
   26        0.0155437300
   27        0.0063888700
   28        0.0000000000
   29       -0.0000000000
   30       -0.0000000000
   31       -0.0000000000
   32       -0.0735230700
   33       -0.0302198400
   34        0.0000000000
   35        0.0000000000
   36        0.0000000000
   37        0.0000000000
   38        0.0000000000
   39       -0.0000000000
   40        0.0000000000
   41       -0.0000000000
   42        0.0000000000
   43       -0.0000000000
   44        0.0000000000
   45        0.0000000000
   46       -0.0656693200
   47       -0.0269917500
   48        0.0000000000
   49        0.2141460200
   50        0.0880194200
   51        0.0000000000
   52       -0.9055765600
   53       -0.3722148100
   54        0.0000000000
   55        0.8671096300
   56        0.3564039300
   57       -0.0000000000
   58        0.0000000000
   59        0.0000000000
   60       -0.0155437300
   61       -0.0063888700
   62       -0.0000000000
   63        0.0000000000
   64        0.0000000000
   65        0.0000000000
   66        0.0735230700
   67        0.0302198400
   68       -0.0000000000
 Ene=          0.01398760
 Spin= Alpha
 Occup=        0.00000000
    1       -0.1838835200
    2        0.1053701400
    3        0.2927529600
    4       -1.4783789400
    5        0.8823186200
    6        0.0093680200
    7        0.0966842200
    8       -0.0622226400
    9       -0.0017119300
   10       -0.0003175400
   11        0.7811948500
   12       -0.0000000000
   13        0.0000000000
   14       -0.1099522400
   15        0.0000000000
   16       -0.0000000000
   17        0.3125846600
   18       -0.0000000000
   19       -0.0000000000
   20        0.1933542600
   21        0.0000000000
   22        0.0000000000
   23        0.2404491000
   24       -0.0154327100
   25       -0.0154327100
   26       -0.0000000000
   27        0.0000000000
   28       -0.0000000000
   29       -0.0646192600
   30       -0.0577435900
   31       -0.0577435900
   32        0.0000000000
   33       -0.0000000000
   34       -0.0000000000
   35       -0.1838835200
   36        0.1053701400
   37        0.2927529600
   38       -1.4783789400
   39        0.8823186200
   40        0.0093680200
   41        0.0966842200
   42       -0.0622226400
   43       -0.0017119300
   44       -0.0003175400
   45       -0.7811948500
   46        0.0000000000
   47       -0.0000000000
   48        0.1099522400
   49       -0.0000000000
   50        0.0000000000
   51       -0.3125846600
   52        0.0000000000
   53       -0.0000000000
   54       -0.1933542600
   55       -0.0000000000
   56        0.0000000000
   57        0.2404491000
   58       -0.0154327100
   59       -0.0154327100
   60       -0.0000000000
   61        0.0000000000
   62        0.0000000000
   63       -0.0646192600
   64       -0.0577435900
   65       -0.0577435900
   66        0.0000000000
   67       -0.0000000000
   68        0.0000000000
 Ene=          0.01450070
 Spin= Alpha
 Occup=        0.00000000
    1        0.0126904600
    2        0.0404600300
    3        0.0856448400
    4       -0.1902897700
    5        0.0812430500
    6       -0.0708962500
    7        0.0019081600
    8        0.0058893400
    9        0.0016682300
   10       -0.0001835200
   11       -0.0579699000
   12        0.0000000000
   13       -0.0000000000
   14       -0.0792883200
   15       -0.0000000000
   16        0.0000000000
   17        0.2706663400
   18        0.0000000000
   19       -0.0000000000
   20       -1.0518944400
   21       -0.0000000000
   22        0.0000000000
   23       -0.0769307500
   24       -0.0469887700
   25       -0.0469887700
   26        0.0000000000
   27       -0.0000000000
   28       -0.0000000000
   29       -0.1305861000
   30       -0.1525418600
   31       -0.1525418600
   32       -0.0000000000
   33        0.0000000000
   34        0.0000000000
   35       -0.0126904600
   36       -0.0404600300
   37       -0.0856448400
   38        0.1902897700
   39       -0.0812430500
   40        0.0708962500
   41       -0.0019081600
   42       -0.0058893400
   43       -0.0016682300
   44        0.0001835200
   45       -0.0579699000
   46       -0.0000000000
   47        0.0000000000
   48       -0.0792883200
   49        0.0000000000
   50       -0.0000000000
   51        0.2706663400
   52       -0.0000000000
   53        0.0000000000
   54       -1.0518944400
   55        0.0000000000
   56       -0.0000000000
   57        0.0769307500
   58        0.0469887700
   59        0.0469887700
   60        0.0000000000
   61       -0.0000000000
   62        0.0000000000
   63        0.1305861000
   64        0.1525418600
   65        0.1525418600
   66       -0.0000000000
   67        0.0000000000
   68       -0.0000000000
 Ene=          0.01816030
 Spin= Alpha
 Occup=        0.00000000
    1        0.0186285300
    2       -0.0534538400
    3       -4.4694124000
    4        2.7581964000
    5       -1.2023186300
    6        0.0483363500
    7       -0.1082048500
    8        0.0637241200
    9        0.0005650900
   10        0.0004961900
   11       -0.0941800300
   12        0.0000000000
   13       -0.0000000000
   14        0.1004189000
   15        0.0000000000
   16        0.0000000000
   17       -1.9170371200
   18       -0.0000000000
   19       -0.0000000000
   20        0.2021548500
   21        0.0000000000
   22        0.0000000000
   23       -0.0255263500
   24       -0.1549886700
   25       -0.1549886700
   26        0.0000000000
   27       -0.0000000000
   28        0.0000000000
   29       -0.1696364500
   30        0.0362384100
   31        0.0362384100
   32        0.0000000000
   33        0.0000000000
   34       -0.0000000000
   35       -0.0186285300
   36        0.0534538400
   37        4.4694124000
   38       -2.7581964000
   39        1.2023186300
   40       -0.0483363500
   41        0.1082048500
   42       -0.0637241200
   43       -0.0005650900
   44       -0.0004961900
   45       -0.0941800300
   46       -0.0000000000
   47        0.0000000000
   48        0.1004189000
   49       -0.0000000000
   50       -0.0000000000
   51       -1.9170371200
   52        0.0000000000
   53        0.0000000000
   54        0.2021548500
   55       -0.0000000000
   56       -0.0000000000
   57        0.0255263500
   58        0.1549886700
   59        0.1549886700
   60        0.0000000000
   61       -0.0000000000
   62       -0.0000000000
   63        0.1696364500
   64       -0.0362384100
   65       -0.0362384100
   66        0.0000000000
   67        0.0000000000
   68        0.0000000000
 Ene=          0.01996650
 Spin= Alpha
 Occup=        0.00000000
    1        0.0000000000
    2        0.0000000000
    3        0.0000000000
    4       -0.0000000000
    5        0.0000000000
    6       -0.0000000000
    7        0.0000000000
    8       -0.0000000000
    9        0.0000000000
   10       -0.0000000000
   11        0.0000000000
   12       -2.1118961400
   13       -6.6385614000
   14        0.0000000000
   15        0.4679716400
   16        1.4710280700
   17        0.0000000000
   18       -0.5246946800
   19       -1.6493319700
   20       -0.0000000000
   21        0.2505818700
   22        0.7876822500
   23        0.0000000000
   24        0.0000000000
   25        0.0000000000
   26       -0.3930444900
   27       -1.2355011000
   28       -0.0000000000
   29        0.0000000000
   30        0.0000000000
   31        0.0000000000
   32        0.0926394200
   33        0.2912039300
   34        0.0000000000
   35       -0.0000000000
   36       -0.0000000000
   37       -0.0000000000
   38        0.0000000000
   39       -0.0000000000
   40       -0.0000000000
   41       -0.0000000000
   42        0.0000000000
   43       -0.0000000000
   44       -0.0000000000
   45       -0.0000000000
   46        2.1118961400
   47        6.6385614000
   48        0.0000000000
   49       -0.4679716400
   50       -1.4710280700
   51        0.0000000000
   52        0.5246946800
   53        1.6493319700
   54       -0.0000000000
   55       -0.2505818700
   56       -0.7876822500
   57        0.0000000000
   58       -0.0000000000
   59       -0.0000000000
   60       -0.3930444900
   61       -1.2355011000
   62        0.0000000000
   63       -0.0000000000
   64        0.0000000000
   65        0.0000000000
   66        0.0926394200
   67        0.2912039300
   68       -0.0000000000
 Ene=          0.01996650
 Spin= Alpha
 Occup=        0.00000000
    1       -0.0000000000
    2        0.0000000000
    3        0.0000000000
    4       -0.0000000000
    5        0.0000000000
    6        0.0000000000
    7        0.0000000000
    8       -0.0000000000
    9        0.0000000000
   10       -0.0000000000
   11       -0.0000000000
   12        6.6385614000
   13       -2.1118961400
   14        0.0000000000
   15       -1.4710280700
   16        0.4679716400