[Molden Format]
[Atoms] AU
E+       1       4     0.00000000     0.00000000     0.00000000
E+       2       4    58.60000000     0.00000000     0.00000000
[GTO]
  1 0
s  1 1.00
   1.0000000000E-04   1.0000000000E+00
s  1 1.00
   3.0000000000E-04   1.0000000000E+00
s  1 1.00
   9.0000000000E-04   1.0000000000E+00
s  1 1.00
   2.7000000000E-03   1.0000000000E+00
s  1 1.00
   8.1000000000E-03   1.0000000000E+00
s  1 1.00
   2.4300000000E-02   1.0000000000E+00
s  1 1.00
   7.2900000000E-02   1.0000000000E+00
s  1 1.00
   2.1870000000E-01   1.0000000000E+00
s  1 1.00
   6.5610000000E-01   1.0000000000E+00
s  1 1.00
   1.9683000000E+00   1.0000000000E+00
p  1 1.00
   1.0000000000E-04   1.0000000000E+00
p  1 1.00
   3.0000000000E-04   1.0000000000E+00
p  1 1.00
   9.0000000000E-04   1.0000000000E+00
p  1 1.00
   2.7000000000E-03   1.0000000000E+00
d  1 1.00
   1.0000000000E-04   1.0000000000E+00
d  1 1.00
   3.0000000000E-04   1.0000000000E+00
 
  2 0
s  1 1.00
   1.0000000000E-04   1.0000000000E+00
s  1 1.00
   3.0000000000E-04   1.0000000000E+00
s  1 1.00
   9.0000000000E-04   1.0000000000E+00
s  1 1.00
   2.7000000000E-03   1.0000000000E+00
s  1 1.00
   8.1000000000E-03   1.0000000000E+00
s  1 1.00
   2.4300000000E-02   1.0000000000E+00
s  1 1.00
   7.2900000000E-02   1.0000000000E+00
s  1 1.00
   2.1870000000E-01   1.0000000000E+00
s  1 1.00
   6.5610000000E-01   1.0000000000E+00
s  1 1.00
   1.9683000000E+00   1.0000000000E+00
p  1 1.00
   1.0000000000E-04   1.0000000000E+00
p  1 1.00
   3.0000000000E-04   1.0000000000E+00
p  1 1.00
   9.0000000000E-04   1.0000000000E+00
p  1 1.00
   2.7000000000E-03   1.0000000000E+00
d  1 1.00
   1.0000000000E-04   1.0000000000E+00
d  1 1.00
   3.0000000000E-04   1.0000000000E+00
 
 
[MO]
Ene=     4.73860E-03
Spin= Alpha
Occup=   1.0000000000
   1       0.46659358
   2       0.22257540
   3      -0.74383340
   4       0.18600752
   5      -0.13808472
   6      -0.05385398
   7      -0.05181524
   8       0.03883897
   9       0.00207965
  10       0.00004347
  11      -0.49490322
  12      -0.00000000
  13      -0.00000000
  14       0.19409235
  15      -0.00000000
  16      -0.00000000
  17      -0.36474432
  18       0.00000000
  19       0.00000000
  20      -0.09022557
  21      -0.00000000
  22      -0.00000000
  23      -0.27160783
  24      -0.02665525
  25      -0.02665525
  26      -0.00000000
  27      -0.00000000
  28      -0.00000000
  29      -0.07325025
  30      -0.09120986
  31      -0.09120986
  32      -0.00000000
  33      -0.00000000
  34       0.00000000
  35       0.46659358
  36       0.22257540
  37      -0.74383340
  38       0.18600752
  39      -0.13808472
  40      -0.05385398
  41      -0.05181524
  42       0.03883897
  43       0.00207965
  44       0.00004347
  45       0.49490322
  46       0.00000000
  47       0.00000000
  48      -0.19409235
  49       0.00000000
  50       0.00000000
  51       0.36474432
  52      -0.00000000
  53      -0.00000000
  54       0.09022557
  55       0.00000000
  56       0.00000000
  57      -0.27160783
  58      -0.02665525
  59      -0.02665525
  60      -0.00000000
  61      -0.00000000
  62       0.00000000
  63      -0.07325025
  64      -0.09120986
  65      -0.09120986
  66      -0.00000000
  67      -0.00000000
  68      -0.00000000
Ene=     6.81399E-03
Spin= Alpha
Occup=   0.0000000000
   1       0.01993806
   2      -0.65183388
   3      -0.07047153
   4      -0.42977091
   5      -0.07930388
   6      -0.18884343
   7      -0.08699130
   8       0.07565399
   9       0.00609377
  10      -0.00020707
  11      -0.04200014
  12       0.00000000
  13      -0.00000000
  14      -0.47811728
  15       0.00000000
  16       0.00000000
  17       0.12294055
  18      -0.00000000
  19       0.00000000
  20      -0.32783317
  21       0.00000000
  22      -0.00000000
  23      -0.03297462
  24      -0.02567470
  25      -0.02567470
  26       0.00000000
  27      -0.00000000
  28      -0.00000000
  29      -0.20956309
  30      -0.06817492
  31      -0.06817492
  32      -0.00000000
  33       0.00000000
  34       0.00000000
  35      -0.01993806
  36       0.65183388
  37       0.07047153
  38       0.42977091
  39       0.07930388
  40       0.18884343
  41       0.08699130
  42      -0.07565399
  43      -0.00609377
  44       0.00020707
  45      -0.04200014
  46      -0.00000000
  47       0.00000000
  48      -0.47811728
  49      -0.00000000
  50      -0.00000000
  51       0.12294055
  52       0.00000000
  53       0.00000000
  54      -0.32783317
  55      -0.00000000
  56      -0.00000000
  57       0.03297462
  58       0.02567470
  59       0.02567470
  60       0.00000000
  61      -0.00000000
  62      -0.00000000
  63       0.20956309
  64       0.06817492
  65       0.06817492
  66      -0.00000000
  67       0.00000000
  68       0.00000000
Ene=     8.69266E-03
Spin= Alpha
Occup=   0.0000000000
   1       0.36615502
   2       0.06670258
   3      -0.65473891
   4       0.76751685
   5       0.05178940
   6       0.22013779
   7       0.08674807
   8      -0.07871659
   9      -0.00690560
  10       0.00029437
  11      -0.57387476
  12       0.00000000
  13      -0.00000000
  14       0.23099156
  15      -0.00000000
  16       0.00000000
  17      -0.50032816
  18       0.00000000
  19       0.00000000
  20       0.33086234
  21      -0.00000000
  22      -0.00000000
  23      -0.29268170
  24      -0.00529686
  25      -0.00529686
  26       0.00000000
  27       0.00000000
  28      -0.00000000
  29       0.01141322
  30      -0.01793825
  31      -0.01793825
  32      -0.00000000
  33      -0.00000000
  34       0.00000000
  35       0.36615502
  36       0.06670258
  37      -0.65473891
  38       0.76751685
  39       0.05178940
  40       0.22013779
  41       0.08674807
  42      -0.07871659
  43      -0.00690560
  44       0.00029437
  45       0.57387476
  46      -0.00000000
  47      -0.00000000
  48      -0.23099156
  49       0.00000000
  50       0.00000000
  51       0.50032816
  52      -0.00000000
  53       0.00000000
  54      -0.33086234
  55       0.00000000
  56      -0.00000000
  57      -0.29268170
  58      -0.00529686
  59      -0.00529686
  60       0.00000000
  61      -0.00000000
  62      -0.00000000
  63       0.01141322
  64      -0.01793825
  65      -0.01793825
  66      -0.00000000
  67       0.00000000
  68       0.00000000
Ene=     1.49931E-02
Spin= Alpha
Occup=   0.0000000000
   1      -0.02212808
   2      -2.61146983
   3       0.94653685
   4       0.06705362
   5      -0.54326786
   6      -0.10003113
   7      -0.11229940
   8       0.08200981
   9       0.00416770
  10       0.00013449
  11       0.12506552
  12       0.00000000
  13      -0.00000000
  14      -1.50978925
  15      -0.00000000
  16       0.00000000
  17       0.32908638
  18       0.00000000
  19      -0.00000000
  20       0.33468555
  21      -0.00000000
  22       0.00000000
  23       0.10416802
  24       0.08136229
  25       0.08136229
  26       0.00000000
  27      -0.00000000
  28       0.00000000
  29      -0.30793591
  30       0.14055307
  31       0.14055307
  32      -0.00000000
  33       0.00000000
  34      -0.00000000
  35       0.02212808
  36       2.61146983
  37      -0.94653685
  38      -0.06705362
  39       0.54326786
  40       0.10003113
  41       0.11229940
  42      -0.08200981
  43      -0.00416770
  44      -0.00013449
  45       0.12506552
  46      -0.00000000
  47       0.00000000
  48      -1.50978925
  49       0.00000000
  50      -0.00000000
  51       0.32908638
  52      -0.00000000
  53       0.00000000
  54       0.33468555
  55      -0.00000000
  56      -0.00000000
  57      -0.10416802
  58      -0.08136229
  59      -0.08136229
  60       0.00000000
  61      -0.00000000
  62      -0.00000000
  63       0.30793591
  64      -0.14055307
  65      -0.14055307
  66      -0.00000000
  67       0.00000000
  68      -0.00000000
Ene=     1.73613E-02
Spin= Alpha
Occup=   0.0000000000
   1      -0.00000000
   2       0.00000000
   3      -0.00000000
   4       0.00000000
   5      -0.00000000
   6       0.00000000
   7      -0.00000000
   8       0.00000000
   9      -0.00000000
  10       0.00000000
  11       0.00000000
  12      -0.00520634
  13      -0.06879928
  14       0.00000000
  15       0.01289517
  16       0.17040348
  17      -0.00000000
  18      -0.04809030
  19      -0.63548993
  20       0.00000000
  21      -0.00747030
  22      -0.09871638
  23       0.00000000
  24       0.00000000
  25       0.00000000
  26       0.00673194
  27       0.08895937
  28      -0.00000000
  29       0.00000000
  30       0.00000000
  31       0.00000000
  32      -0.01047178
  33      -0.13837950
  34       0.00000000
  35      -0.00000000
  36      -0.00000000
  37       0.00000000
  38      -0.00000000
  39       0.00000000
  40      -0.00000000
  41       0.00000000
  42      -0.00000000
  43       0.00000000
  44      -0.00000000
  45       0.00000000
  46      -0.00520634
  47      -0.06879928
  48       0.00000000
  49       0.01289517
  50       0.17040348
  51      -0.00000000
  52      -0.04809030
  53      -0.63548993
  54       0.00000000
  55      -0.00747030
  56      -0.09871638
  57       0.00000000
  58      -0.00000000
  59      -0.00000000
  60      -0.00673194
  61      -0.08895937
  62       0.00000000
  63      -0.00000000
  64      -0.00000000
  65      -0.00000000
  66       0.01047178
  67       0.13837950
  68      -0.00000000
Ene=     1.73613E-02
Spin= Alpha
Occup=   0.0000000000
   1       0.00000000
   2      -0.00000000
   3       0.00000000
   4      -0.00000000
   5       0.00000000
   6       0.00000000
   7       0.00000000
   8      -0.00000000
   9      -0.00000000
  10       0.00000000
  11      -0.00000000
  12       0.06879928
  13      -0.00520634
  14      -0.00000000
  15      -0.17040348
  16       0.01289517
  17       0.00000000
  18       0.63548993
  19      -0.04809030
  20      -0.00000000
  21       0.09871638
  22      -0.00747030
  23      -0.00000000
  24      -0.00000000
  25      -0.00000000
  26      -0.08895937
  27       0.00673194
  28      -0.00000000
  29      -0.00000000
  30      -0.00000000
  31      -0.00000000
  32       0.13837950
  33      -0.01047178
  34       0.00000000
  35       0.00000000
  36       0.00000000
  37      -0.00000000
  38      -0.00000000
  39       0.00000000
  40       0.00000000
  41       0.00000000
  42      -0.00000000
  43      -0.00000000
  44       0.00000000
  45       0.00000000
  46       0.06879928
  47      -0.00520634
  48      -0.00000000
  49      -0.17040348
  50       0.01289517
  51      -0.00000000
  52       0.63548993
  53      -0.04809030
  54       0.00000000
  55       0.09871638
  56      -0.00747030
  57      -0.00000000
  58       0.00000000
  59       0.00000000
  60       0.08895937
  61      -0.00673194
  62       0.00000000
  63       0.00000000
  64      -0.00000000
  65      -0.00000000
  66      -0.13837950
  67       0.01047178
  68      -0.00000000
Ene=     1.76959E-02
Spin= Alpha
Occup=   0.0000000000
   1      -0.70728652
   2      -0.47715892
   3       0.19592682
   4       1.02197672
   5      -0.82528170
   6      -0.00843575
   7      -0.11938862
   8       0.07696368
   9       0.00199314
  10       0.00040269
  11      -0.12181972
  12       0.00000000
  13      -0.00000000
  14      -0.02279331
  15      -0.00000000
  16       0.00000000
  17      -0.45039824
  18       0.00000000
  19      -0.00000000
  20       0.75606432
  21       0.00000000
  22       0.00000000
  23       0.06273129
  24       0.11155377
  25       0.11155377
  26       0.00000000
  27      -0.00000000
  28       0.00000000
  29       0.24647026
  30       0.35494324
  31       0.35494324
  32       0.00000000
  33       0.00000000
  34      -0.00000000
  35      -0.70728652
  36      -0.47715892
  37       0.19592682
  38       1.02197672
  39      -0.82528170
  40      -0.00843575
  41      -0.11938862
  42       0.07696368
  43       0.00199314
  44       0.00040269
  45       0.12181972
  46      -0.00000000
  47       0.00000000
  48       0.02279331
  49       0.00000000
  50      -0.00000000
  51       0.45039824
  52       0.00000000
  53       0.00000000
  54      -0.75606432
  55       0.00000000
  56      -0.00000000
  57       0.06273129
  58       0.11155377
  59       0.11155377
  60       0.00000000
  61      -0.00000000
  62      -0.00000000
  63       0.24647026
  64       0.35494324
  65       0.35494324
  66      -0.00000000
  67       0.00000000
  68       0.00000000
Ene=     2.01486E-02
Spin= Alpha
Occup=   0.0000000000
   1       0.00000000
   2      -0.00000000
   3      -0.00000000
   4       0.00000000
   5      -0.00000000
   6       0.00000000
   7      -0.00000000
   8       0.00000000
   9       0.00000000
  10      -0.00000000
  11       0.00000000
  12       0.18472114
  13       0.03191547
  14      -0.00000000
  15      -0.02150890
  16      -0.00371623
  17      -0.00000000
  18       0.15744393
  19       0.02720261
  20       0.00000000
  21       0.60584070
  22       0.10467503
  23       0.00000000
  24      -0.00000000
  25      -0.00000000
  26       0.04106814
  27       0.00709561
  28      -0.00000000
  29      -0.00000000
  30      -0.00000000
  31      -0.00000000
  32       0.03888245
  33       0.00671797
  34       0.00000000
  35      -0.00000000
  36       0.00000000
  37       0.00000000
  38      -0.00000000
  39       0.00000000
  40      -0.00000000
  41       0.00000000
  42      -0.00000000
  43       0.00000000
  44      -0.00000000
  45      -0.00000000
  46      -0.18472114
  47      -0.03191547
  48      -0.00000000
  49       0.02150890
  50       0.00371623
  51      -0.00000000
  52      -0.15744393
  53      -0.02720261
  54       0.00000000
  55      -0.60584070
  56      -0.10467503
  57       0.00000000
  58       0.00000000
  59       0.00000000
  60       0.04106814
  61       0.00709561
  62       0.00000000
  63       0.00000000
  64       0.00000000
  65       0.00000000
  66       0.03888245
  67       0.00671797
  68       0.00000000
Ene=     2.01486E-02
Spin= Alpha
Occup=   0.0000000000
   1       0.00000000
   2      -0.00000000
   3       0.00000000
   4      -0.00000000
   5       0.00000000
   6      -0.00000000
   7       0.00000000
   8      -0.00000000
   9      -0.00000000
  10       0.00000000
  11      -0.00000000
  12       0.03191547
  13      -0.18472114
  14      -0.00000000
  15      -0.00371623
  16       0.02150890
  17       0.00000000
  18       0.02720261
  19      -0.15744393
  20      -0.00000000
  21       0.10467503
  22      -0.60584070
  23      -0.00000000
  24      -0.00000000
  25      -0.00000000
  26       0.00709561
  27      -0.04106814
  28       0.00000000
  29      -0.00000000
  30      -0.00000000
  31      -0.00000000
  32       0.00671797
  33      -0.03888245
  34      -0.00000000
  35       0.00000000
  36       0.00000000
  37      -0.00000000
  38       0.00000000
  39      -0.00000000
  40       0.00000000
  41      -0.00000000
  42       0.00000000
  43       0.00000000
  44       0.00000000
  45      -0.00000000
  46      -0.03191547
  47       0.18472114
  48      -0.00000000
  49       0.00371623
  50      -0.02150890
  51       0.00000000
  52      -0.02720261
  53       0.15744393
  54      -0.00000000
  55      -0.10467503
  56       0.60584070
  57       0.00000000
  58       0.00000000
  59       0.00000000
  60       0.00709561
  61      -0.04106814
  62      -0.00000000
  63       0.00000000
  64       0.00000000
  65       0.00000000
  66       0.00671797
  67      -0.03888245
  68      -0.00000000
Ene=     2.13121E-02
Spin= Alpha
Occup=   0.0000000000
   1       0.04267137
   2      -7.05862627
   3       2.28599607
   4      -1.77814154
   5       0.71550398
   6      -0.07338329
   7       0.07279502
   8      -0.03897832
   9       0.00064976
  10      -0.00044154
  11       0.05015670
  12       0.00000000
  13      -0.00000000
  14      -4.49170901
  15      -0.00000000
  16       0.00000000
  17       1.50480201
  18       0.00000000
  19      -0.00000000
  20      -0.72938220
  21      -0.00000000
  22       0.00000000
  23       0.02999423
  24       0.04692406
  25       0.04692406
  26       0.00000000
  27      -0.00000000
  28       0.00000000
  29      -1.33362159
  30      -0.05137708
  31      -0.05137708
  32      -0.00000000
  33       0.00000000
  34      -0.00000000
  35      -0.04267137
  36       7.05862627
  37      -2.28599607
  38       1.77814154
  39      -0.71550398
  40       0.07338329
  41      -0.07279502
  42       0.03897832
  43      -0.00064976
  44       0.00044154
  45       0.05015670
  46      -0.00000000
  47       0.00000000
  48      -4.49170901
  49       0.00000000
  50      -0.00000000
  51       1.50480201
  52       0.00000000
  53      -0.00000000
  54      -0.72938220
  55      -0.00000000
  56      -0.00000000
  57      -0.02999423
  58      -0.04692406
  59      -0.04692406
  60       0.00000000
  61      -0.00000000
  62      -0.00000000
  63       1.33362159
  64       0.05137708
  65       0.05137708
  66      -0.00000000
  67       0.00000000
  68       0.00000000
Ene=     2.33929E-02
Spin= Alpha
Occup=   0.0000000000
   1      -0.00000000
   2      -0.00000000
   3       0.00000000
   4       0.00000000
   5      -0.00000000
   6       0.00000000
   7      -0.00000000
   8       0.00000000
   9      -0.00000000
  10       0.00000000
  11      -0.00000000
  12       0.05434027
  13      -0.03427054
  14      -0.00000000
  15      -0.13945926
  16       0.08795217
  17       0.00000000
  18       0.66105588
  19      -0.41690525
  20       0.00000000
  21      -0.84502220
  22       0.53292650
  23       0.00000000
  24      -0.00000000
  25      -0.00000000
  26      -0.06956187
  27       0.04387028
  28       0.00000000
  29      -0.00000000
  30       0.00000000
  31       0.00000000
  32       0.10811535
  33      -0.06818464
  34      -0.00000000
  35      -0.00000000
  36       0.00000000
  37       0.00000000
  38      -0.00000000
  39       0.00000000
  40      -0.00000000
  41       0.00000000
  42      -0.00000000
  43      -0.00000000
  44       0.00000000
  45      -0.00000000
  46       0.05434027
  47      -0.03427054
  48      -0.00000000
  49      -0.13945926
  50       0.08795217
  51      -0.00000000
  52       0.66105588
  53      -0.41690525
  54       0.00000000
  55      -0.84502220
  56       0.53292650
  57       0.00000000
  58       0.00000000
  59       0.00000000
  60       0.06956187
  61      -0.04387028
  62       0.00000000
  63       0.00000000
  64       0.00000000
  65       0.00000000
  66      -0.10811535
  67       0.06818464
  68      -0.00000000
Ene=     2.33929E-02
Spin= Alpha
Occup=   0.0000000000
   1       0.00000000
   2      -0.00000000
   3       0.00000000
   4      -0.00000000
   5       0.00000000
   6       0.00000000
   7       0.00000000
   8      -0.00000000
   9       0.00000000
  10      -0.00000000
  11      -0.00000000
  12       0.03427054
  13       0.05434027
  14      -0.00000000
  15      -0.08795217
  16      -0.13945926
  17       0.00000000
  18       0.41690525
  19       0.66105588
  20      -0.00000000
  21      -0.53292650
  22      -0.84502220
  23      -0.00000000
  24      -0.00000000
  25      -0.00000000
  26      -0.04387028
  27      -0.06956187
  28      -0.00000000
  29      -0.00000000
  30      -0.00000000
  31      -0.00000000
  32       0.06818464
  33       0.10811535
  34      -0.00000000
  35       0.00000000
  36       0.00000000
  37      -0.00000000
  38       0.00000000
  39      -0.00000000
  40      -0.00000000
  41       0.00000000
  42      -0.00000000
  43       0.00000000
  44      -0.00000000
  45       0.00000000
  46       0.03427054
  47       0.05434027
  48      -0.00000000
  49      -0.08795217
  50      -0.13945926
  51       0.00000000
  52       0.41690525
  53       0.66105588
  54      -0.00000000
  55      -0.53292650
  56      -0.84502220
  57      -0.00000000
  58       0.00000000
  59       0.00000000
  60       0.04387028
  61       0.06956187
  62      -0.00000000
  63       0.00000000
  64       0.00000000
  65       0.00000000
  66      -0.06818464
  67      -0.10811535
  68       0.00000000
Ene=     2.77880E-02
Spin= Alpha
Occup=   0.0000000000
   1      -0.81823798
   2      -0.12170799
   3       0.11857394
   4      -0.72484357
   5       0.54868007
   6       0.01919183
   7       0.06123498
   8      -0.04083332
   9      -0.00144445
  10      -0.00016310
  11       0.78263422
  12       0.00000000
  13       0.00000000
  14      -0.31518132
  15      -0.00000000
  16       0.00000000
  17       0.37002314
  18      -0.00000000
  19       0.00000000
  20       0.19993640
  21       0.00000000
  22      -0.00000000
  23       0.45861362
  24       0.05349812
  25       0.05349812
  26       0.00000000
  27       0.00000000
  28      -0.00000000
  29       0.05116661
  30       0.14399161
  31       0.14399161
  32      -0.00000000
  33       0.00000000
  34       0.00000000
  35      -0.81823798
  36      -0.12170799
  37       0.11857394
  38      -0.72484357
  39       0.54868007
  40       0.01919183
  41       0.06123498
  42      -0.04083332
  43      -0.00144445
  44      -0.00016310
  45      -0.78263422
  46      -0.00000000
  47      -0.00000000
  48       0.31518132
  49       0.00000000
  50      -0.00000000
  51      -0.37002314
  52      -0.00000000
  53      -0.00000000
  54      -0.19993640
  55      -0.00000000
  56       0.00000000
  57       0.45861362
  58       0.05349812
  59       0.05349812
  60       0.00000000
  61       0.00000000
  62       0.00000000
  63       0.05116661
  64       0.14399161
  65       0.14399161
  66      -0.00000000
  67       0.00000000
  68      -0.00000000
Ene=     2.82052E-02
Spin= Alpha
Occup=   0.0000000000
   1       0.00000000
   2      -0.00000000
   3      -0.00000000
   4       0.00000000
   5      -0.00000000
   6       0.00000000
   7      -0.00000000
   8       0.00000000
   9       0.00000000
  10      -0.00000000
  11       0.00000000
  12       1.13588839
  13       1.00766420
  14      -0.00000000
  15      -0.35870765
  16      -0.31821512
  17       0.00000000
  18       1.03982899
  19       0.92244842
  20      -0.00000000
  21      -0.66313937
  22      -0.58828122
  23       0.00000000
  24      -0.00000000
  25      -0.00000000
  26       0.29930011
  27       0.26551377
  28       0.00000000
  29      -0.00000000
  30      -0.00000000
  31      -0.00000000
  32       0.00509136
  33       0.00451663
  34      -0.00000000
  35      -0.00000000
  36       0.00000000
  37      -0.00000000
  38       0.00000000
  39      -0.00000000
  40      -0.00000000
  41      -0.00000000
  42       0.00000000
  43       0.00000000
  44      -0.00000000
  45      -0.00000000
  46      -1.13588839
  47      -1.00766420
  48      -0.00000000
  49       0.35870765
  50       0.31821512
  51       0.00000000
  52      -1.03982899
  53      -0.92244842
  54      -0.00000000
  55       0.66313937
  56       0.58828122
  57       0.00000000
  58       0.00000000
  59       0.00000000
  60       0.29930011
  61       0.26551377
  62      -0.00000000
  63       0.00000000
  64       0.00000000
  65       0.00000000
  66       0.00509136
  67       0.00451663
  68       0.00000000
Ene=     2.82052E-02
Spin= Alpha
Occup=   0.0000000000
   1       0.00000000
   2      -0.00000000
   3      -0.00000000
   4       0.00000000
   5      -0.00000000
   6       0.00000000
   7      -0.00000000
   8       0.00000000
   9      -0.00000000
  10       0.00000000
  11      -0.00000000
  12       1.00766420
  13      -1.13588839
  14      -0.00000000
  15      -0.31821512
  16       0.35870765
  17       0.00000000
  18       0.92244842
  19      -1.03982899
  20      -0.00000000
  21      -0.58828122
  22       0.66313937
  23      -0.00000000
  24      -0.00000000
  25      -0.00000000
  26       0.26551377
  27      -0.29930011
  28       0.00000000
  29      -0.00000000
  30      -0.00000000
  31      -0.00000000
  32       0.00451663
  33      -0.00509136
  34       0.00000000
  35       0.00000000
  36       0.00000000
  37      -0.00000000
  38       0.00000000
  39       0.00000000
  40       0.00000000
  41       0.00000000
  42      -0.00000000
  43       0.00000000
  44      -0.00000000
  45      -0.00000000
  46      -1.00766420
  47       1.13588839
  48      -0.00000000
  49       0.31821512
  50      -0.35870765
  51       0.00000000
  52      -0.92244842
  53       1.03982899
  54      -0.00000000
  55       0.58828122
  56      -0.66313937
  57       0.00000000
  58       0.00000000
  59       0.00000000
  60       0.26551377
  61      -0.29930011
  62       0.00000000
  63       0.00000000
  64       0.00000000
  65       0.00000000
  66       0.00451663
  67      -0.00509136
  68      -0.00000000
Ene=     2.93799E-02
Spin= Alpha
Occup=   0.0000000000
   1      -0.02376787
   2       1.77903283
   3      -0.57358753
   4       1.26074651
   5      -0.72325654
   6      -0.00293933
   7      -0.07285260
   8       0.04658130
   9       0.00125554
  10       0.00024247
  11       0.02116114
  12      -0.00000000
  13       0.00000000
  14       1.27395700
  15       0.00000000
  16      -0.00000000
  17      -0.72455587
  18       0.00000000
  19       0.00000000
  20      -0.20733656
  21      -0.00000000
  22      -0.00000000
  23       0.03087751
  24       0.00095819
  25       0.00095819
  26      -0.00000000
  27       0.00000000
  28      -0.00000000
  29       0.43444914
  30       0.10086023
  31       0.10086023
  32       0.00000000
  33       0.00000000
  34       0.00000000
  35       0.02376787
  36      -1.77903283
  37       0.57358753
  38      -1.26074651
  39       0.72325654
  40       0.00293933
  41       0.07285260
  42      -0.04658130
  43      -0.00125554
  44      -0.00024247
  45       0.02116114
  46       0.00000000
  47      -0.00000000
  48       1.27395700
  49      -0.00000000
  50      -0.00000000
  51      -0.72455587
  52       0.00000000
  53      -0.00000000
  54      -0.20733656
  55       0.00000000
  56       0.00000000
  57      -0.03087751
  58      -0.00095819
  59      -0.00095819
  60      -0.00000000
  61       0.00000000
  62       0.00000000
  63      -0.43444914
  64      -0.10086023
  65      -0.10086023
  66      -0.00000000
  67      -0.00000000
  68      -0.00000000
Ene=     3.16835E-02
Spin= Alpha
Occup=   0.0000000000
   1      -5.47147336
   2      -2.24035462
   3       4.19143764
   4      -1.61488942
   5       0.45535701
   6       0.00805094
   7       0.03216254
   8      -0.02160817
   9      -0.00085395
  10      -0.00007413
  11       2.95989759
  12       0.00000000
  13       0.00000000
  14      -1.45411941
  15      -0.00000000
  16      -0.00000000
  17       0.85494329
  18       0.00000000
  19       0.00000000
  20      -0.52702910
  21      -0.00000000
  22      -0.00000000
  23       2.14995192
  24       0.55057829
  25       0.55057829
  26       0.00000000
  27       0.00000000
  28       0.00000000
  29       0.88358546
  30       1.64217989
  31       1.64217989
  32      -0.00000000
  33      -0.00000000
  34      -0.00000000
  35      -5.47147336
  36      -2.24035462
  37       4.19143764
  38      -1.61488942
  39       0.45535701
  40       0.00805094
  41       0.03216254
  42      -0.02160817
  43      -0.00085395
  44      -0.00007413
  45      -2.95989759
  46      -0.00000000
  47      -0.00000000
  48       1.45411941
  49       0.00000000
  50       0.00000000
  51      -0.85494329
  52      -0.00000000
  53      -0.00000000
  54       0.52702910
  55       0.00000000
  56       0.00000000
  57       2.14995192
  58       0.55057829
  59       0.55057829
  60       0.00000000
  61       0.00000000
  62      -0.00000000
  63       0.88358546
  64       1.64217989
  65       1.64217989
  66      -0.00000000
  67      -0.00000000
  68       0.00000000
Ene=     3.44789E-02
Spin= Alpha
Occup=   0.0000000000
   1      -0.84301752
   2      -0.86396498
   3       2.26462922
   4      -1.92485383
   5       0.79298291
   6      -0.02480603
   7       0.06499252
   8      -0.03878335
   9      -0.00049864
  10      -0.00028125
  11      -0.17182462
  12       0.00000000
  13       0.00000000
  14      -0.01217314
  15      -0.00000000
  16      -0.00000000
  17      -0.67854381
  18       0.00000000
  19       0.00000000
  20       0.59048821
  21      -0.00000000
  22      -0.00000000
  23       0.07654376
  24       0.13805509
  25       0.13805509
  26       0.00000000
  27       0.00000000
  28       0.00000000
  29       0.31415432
  30       0.45642754
  31       0.45642754
  32       0.00000000
  33      -0.00000000
  34       0.00000000
  35      -0.84301752
  36      -0.86396498
  37       2.26462922
  38      -1.92485383
  39       0.79298291
  40      -0.02480603
  41       0.06499252
  42      -0.03878335
  43      -0.00049864
  44      -0.00028125
  45       0.17182462
  46      -0.00000000
  47      -0.00000000
  48       0.01217314
  49      -0.00000000
  50       0.00000000
  51       0.67854381
  52       0.00000000
  53       0.00000000
  54      -0.59048821
  55      -0.00000000
  56      -0.00000000
  57       0.07654376
  58       0.13805509
  59       0.13805509
  60       0.00000000
  61       0.00000000
  62      -0.00000000
  63       0.31415432
  64       0.45642754
  65       0.45642754
  66       0.00000000
  67      -0.00000000
  68       0.00000000
Ene=     3.49035E-02
Spin= Alpha
Occup=   0.0000000000
   1       0.00525899
   2       5.48676620
   3       0.43586288
   4      -1.04908872
   5       0.51693073
   6      -0.03411233
   7       0.04431672
   8      -0.02460502
   9       0.00011155
  10      -0.00023912
  11      -0.13646730
  12      -0.00000000