[Molden Format]
[Atoms] AU
E+       1       4     0.00000000     0.00000000     0.00000000
E+       2       4    41.00000000     0.00000000     0.00000000
[GTO]
  1 0
s  1 1.00
   1.0000000000E-04   1.0000000000E+00
s  1 1.00
   3.0000000000E-04   1.0000000000E+00
s  1 1.00
   9.0000000000E-04   1.0000000000E+00
s  1 1.00
   2.7000000000E-03   1.0000000000E+00
s  1 1.00
   8.1000000000E-03   1.0000000000E+00
s  1 1.00
   2.4300000000E-02   1.0000000000E+00
s  1 1.00
   7.2900000000E-02   1.0000000000E+00
s  1 1.00
   2.1870000000E-01   1.0000000000E+00
s  1 1.00
   6.5610000000E-01   1.0000000000E+00
s  1 1.00
   1.9683000000E+00   1.0000000000E+00
p  1 1.00
   1.0000000000E-04   1.0000000000E+00
p  1 1.00
   3.0000000000E-04   1.0000000000E+00
p  1 1.00
   9.0000000000E-04   1.0000000000E+00
p  1 1.00
   2.7000000000E-03   1.0000000000E+00
d  1 1.00
   1.0000000000E-04   1.0000000000E+00
d  1 1.00
   3.0000000000E-04   1.0000000000E+00
 
  2 0
s  1 1.00
   1.0000000000E-04   1.0000000000E+00
s  1 1.00
   3.0000000000E-04   1.0000000000E+00
s  1 1.00
   9.0000000000E-04   1.0000000000E+00
s  1 1.00
   2.7000000000E-03   1.0000000000E+00
s  1 1.00
   8.1000000000E-03   1.0000000000E+00
s  1 1.00
   2.4300000000E-02   1.0000000000E+00
s  1 1.00
   7.2900000000E-02   1.0000000000E+00
s  1 1.00
   2.1870000000E-01   1.0000000000E+00
s  1 1.00
   6.5610000000E-01   1.0000000000E+00
s  1 1.00
   1.9683000000E+00   1.0000000000E+00
p  1 1.00
   1.0000000000E-04   1.0000000000E+00
p  1 1.00
   3.0000000000E-04   1.0000000000E+00
p  1 1.00
   9.0000000000E-04   1.0000000000E+00
p  1 1.00
   2.7000000000E-03   1.0000000000E+00
d  1 1.00
   1.0000000000E-04   1.0000000000E+00
d  1 1.00
   3.0000000000E-04   1.0000000000E+00
 
 
[MO]
Ene=    -3.44466E-03
Spin= Alpha
Occup=   1.0000000000
   1       0.01506428
   2      -0.00051741
   3      -0.02523093
   4      -0.19437558
   5      -0.30173564
   6      -0.19801785
   7      -0.12241326
   8       0.09894789
   9       0.00677873
  10      -0.00009614
  11      -0.04386196
  12       0.00000000
  13       0.00000000
  14       0.00988993
  15      -0.00000000
  16      -0.00000000
  17      -0.01618997
  18      -0.00000000
  19      -0.00000000
  20      -0.05973912
  21       0.00000000
  22       0.00000000
  23      -0.01521764
  24       0.00042391
  25       0.00042391
  26       0.00000000
  27       0.00000000
  28       0.00000000
  29       0.00322023
  30       0.00098475
  31       0.00098475
  32      -0.00000000
  33      -0.00000000
  34       0.00000000
  35       0.01506428
  36      -0.00051741
  37      -0.02523093
  38      -0.19437558
  39      -0.30173564
  40      -0.19801785
  41      -0.12241326
  42       0.09894789
  43       0.00677873
  44      -0.00009614
  45       0.04386196
  46      -0.00000000
  47      -0.00000000
  48      -0.00988993
  49       0.00000000
  50       0.00000000
  51       0.01618997
  52       0.00000000
  53      -0.00000000
  54       0.05973912
  55      -0.00000000
  56       0.00000000
  57      -0.01521764
  58       0.00042391
  59       0.00042391
  60       0.00000000
  61       0.00000000
  62      -0.00000000
  63       0.00322023
  64       0.00098475
  65       0.00098475
  66      -0.00000000
  67      -0.00000000
  68      -0.00000000
Ene=    -3.19362E-03
Spin= Alpha
Occup=   0.0000000000
   1       0.00223391
   2      -0.12189966
   3      -0.00555184
   4      -0.25590541
   5      -0.28581909
   6      -0.21654771
   7      -0.12360879
   8       0.10167238
   9       0.00728436
  10      -0.00014425
  11      -0.00290116
  12      -0.00000000
  13      -0.00000000
  14      -0.05152793
  15      -0.00000000
  16       0.00000000
  17       0.00961119
  18       0.00000000
  19      -0.00000000
  20      -0.09120160
  21      -0.00000000
  22       0.00000000
  23      -0.00323155
  24      -0.00274506
  25      -0.00274506
  26      -0.00000000
  27      -0.00000000
  28      -0.00000000
  29      -0.01693766
  30      -0.00660892
  31      -0.00660892
  32      -0.00000000
  33       0.00000000
  34       0.00000000
  35      -0.00223391
  36       0.12189966
  37       0.00555184
  38       0.25590541
  39       0.28581909
  40       0.21654771
  41       0.12360879
  42      -0.10167238
  43      -0.00728436
  44       0.00014425
  45      -0.00290116
  46       0.00000000
  47       0.00000000
  48      -0.05152793
  49       0.00000000
  50      -0.00000000
  51       0.00961119
  52       0.00000000
  53      -0.00000000
  54      -0.09120160
  55      -0.00000000
  56       0.00000000
  57       0.00323155
  58       0.00274506
  59       0.00274506
  60      -0.00000000
  61      -0.00000000
  62       0.00000000
  63       0.01693766
  64       0.00660892
  65       0.00660892
  66       0.00000000
  67       0.00000000
  68      -0.00000000
Ene=     4.35696E-03
Spin= Alpha
Occup=   0.0000000000
   1       0.63557253
   2       0.10776402
   3      -0.97415885
   4       0.58324037
   5       0.07587888
   6       0.11808678
   7       0.04007439
   8      -0.03768148
   9      -0.00354653
  10       0.00017024
  11      -1.09483011
  12       0.00000000
  13       0.00000000
  14       0.34689999
  15      -0.00000000
  16      -0.00000000
  17      -0.45829475
  18      -0.00000000
  19       0.00000000
  20       0.03729974
  21       0.00000000
  22      -0.00000000
  23      -0.42016960
  24      -0.02719108
  25      -0.02719108
  26       0.00000000
  27       0.00000000
  28      -0.00000000
  29       0.03121495
  30      -0.09145235
  31      -0.09145235
  32      -0.00000000
  33      -0.00000000
  34       0.00000000
  35       0.63557253
  36       0.10776401
  37      -0.97415885
  38       0.58324037
  39       0.07587888
  40       0.11808678
  41       0.04007439
  42      -0.03768148
  43      -0.00354653
  44       0.00017024
  45       1.09483011
  46      -0.00000000
  47      -0.00000000
  48      -0.34689998
  49       0.00000000
  50       0.00000000
  51       0.45829475
  52       0.00000000
  53      -0.00000000
  54      -0.03729974
  55      -0.00000000
  56       0.00000000
  57      -0.42016960
  58      -0.02719108
  59      -0.02719108
  60       0.00000000
  61       0.00000000
  62       0.00000000
  63       0.03121495
  64      -0.09145235
  65      -0.09145235
  66      -0.00000000
  67      -0.00000000
  68      -0.00000000
Ene=     7.44828E-03
Spin= Alpha
Occup=   0.0000000000
   1      -0.00000000
   2       0.00000000
   3      -0.00000000
   4       0.00000000
   5      -0.00000000
   6       0.00000000
   7       0.00000000
   8      -0.00000000
   9      -0.00000000
  10       0.00000000
  11       0.00000000
  12      -0.00343843
  13      -0.03017835
  14       0.00000000
  15       0.01003048
  16       0.08803538
  17      -0.00000000
  18      -0.03365153
  19      -0.29535213
  20       0.00000000
  21      -0.04768005
  22      -0.41847742
  23       0.00000000
  24       0.00000000
  25       0.00000000
  26       0.00212677
  27       0.01866624
  28       0.00000000
  29       0.00000000
  30       0.00000000
  31       0.00000000
  32      -0.00512204
  33      -0.04495504
  34      -0.00000000
  35       0.00000000
  36      -0.00000000
  37       0.00000000
  38      -0.00000000
  39       0.00000000
  40      -0.00000000
  41       0.00000000
  42       0.00000000
  43       0.00000000
  44      -0.00000000
  45      -0.00000000
  46      -0.00343843
  47      -0.03017835
  48       0.00000000
  49       0.01003048
  50       0.08803538
  51      -0.00000000
  52      -0.03365153
  53      -0.29535213
  54       0.00000000
  55      -0.04768005
  56      -0.41847742
  57       0.00000000
  58      -0.00000000
  59      -0.00000000
  60      -0.00212677
  61      -0.01866624
  62      -0.00000000
  63      -0.00000000
  64      -0.00000000
  65      -0.00000000
  66       0.00512204
  67       0.04495504
  68      -0.00000000
Ene=     7.44828E-03
Spin= Alpha
Occup=   0.0000000000
   1      -0.00000000
   2       0.00000000
   3      -0.00000000
   4       0.00000000
   5       0.00000000
   6       0.00000000
   7      -0.00000000
   8       0.00000000
   9      -0.00000000
  10       0.00000000
  11       0.00000000
  12       0.03017835
  13      -0.00343843
  14       0.00000000
  15      -0.08803538
  16       0.01003048
  17      -0.00000000
  18       0.29535213
  19      -0.03365153
  20       0.00000000
  21       0.41847742
  22      -0.04768005
  23       0.00000000
  24       0.00000000
  25       0.00000000
  26      -0.01866624
  27       0.00212677
  28       0.00000000
  29       0.00000000
  30       0.00000000
  31       0.00000000
  32       0.04495504
  33      -0.00512204
  34      -0.00000000
  35       0.00000000
  36      -0.00000000
  37       0.00000000
  38      -0.00000000
  39       0.00000000
  40      -0.00000000
  41       0.00000000
  42       0.00000000
  43      -0.00000000
  44       0.00000000
  45      -0.00000000
  46       0.03017835
  47      -0.00343843
  48       0.00000000
  49      -0.08803538
  50       0.01003048
  51      -0.00000000
  52       0.29535213
  53      -0.03365153
  54       0.00000000
  55       0.41847742
  56      -0.04768005
  57       0.00000000
  58      -0.00000000
  59      -0.00000000
  60       0.01866624
  61      -0.00212677
  62      -0.00000000
  63      -0.00000000
  64      -0.00000000
  65      -0.00000000
  66      -0.04495504
  67       0.00512204
  68       0.00000000
Ene=     9.72219E-03
Spin= Alpha
Occup=   0.0000000000
   1      -0.00000000
   2       0.00000000
   3      -0.00000000
   4       0.00000000
   5       0.00000000
   6       0.00000000
   7       0.00000000
   8      -0.00000000
   9      -0.00000000
  10      -0.00000000
  11      -0.00000000
  12      -0.03741902
  13      -0.04637054
  14       0.00000000
  15       0.05486100
  16       0.06798506
  17      -0.00000000
  18       0.00588410
  19       0.00729172
  20      -0.00000000
  21       0.46551526
  22       0.57687761
  23       0.00000000
  24       0.00000000
  25       0.00000000
  26      -0.00959468
  27      -0.01188995
  28       0.00000000
  29       0.00000000
  30       0.00000000
  31       0.00000000
  32       0.02373153
  33       0.02940868
  34      -0.00000000
  35       0.00000000
  36      -0.00000000
  37       0.00000000
  38       0.00000000
  39      -0.00000000
  40      -0.00000000
  41      -0.00000000
  42       0.00000000
  43       0.00000000
  44      -0.00000000
  45      -0.00000000
  46       0.03741902
  47       0.04637054
  48       0.00000000
  49      -0.05486100
  50      -0.06798506
  51      -0.00000000
  52      -0.00588410
  53      -0.00729172
  54      -0.00000000
  55      -0.46551526
  56      -0.57687761
  57       0.00000000
  58      -0.00000000
  59      -0.00000000
  60      -0.00959468
  61      -0.01188995
  62      -0.00000000
  63      -0.00000000
  64      -0.00000000
  65      -0.00000000
  66       0.02373153
  67       0.02940868
  68      -0.00000000
Ene=     9.72219E-03
Spin= Alpha
Occup=   0.0000000000
   1       0.00000000
   2      -0.00000000
   3       0.00000000
   4       0.00000000
   5      -0.00000000
   6      -0.00000000
   7       0.00000000
   8      -0.00000000
   9       0.00000000
  10      -0.00000000
  11       0.00000000
  12       0.04637054
  13      -0.03741902
  14      -0.00000000
  15      -0.06798506
  16       0.05486100
  17       0.00000000
  18      -0.00729172
  19       0.00588410
  20       0.00000000
  21      -0.57687761
  22       0.46551526
  23       0.00000000
  24      -0.00000000
  25      -0.00000000
  26       0.01188995
  27      -0.00959468
  28       0.00000000
  29      -0.00000000
  30      -0.00000000
  31      -0.00000000
  32      -0.02940868
  33       0.02373153
  34       0.00000000
  35      -0.00000000
  36       0.00000000
  37      -0.00000000
  38       0.00000000
  39       0.00000000
  40       0.00000000
  41      -0.00000000
  42      -0.00000000
  43       0.00000000
  44      -0.00000000
  45      -0.00000000
  46      -0.04637054
  47       0.03741902
  48      -0.00000000
  49       0.06798506
  50      -0.05486100
  51       0.00000000
  52       0.00729172
  53      -0.00588410
  54       0.00000000
  55       0.57687761
  56      -0.46551526
  57       0.00000000
  58       0.00000000
  59       0.00000000
  60       0.01188995
  61      -0.00959468
  62      -0.00000000
  63       0.00000000
  64       0.00000000
  65      -0.00000000
  66      -0.02940868
  67       0.02373153
  68       0.00000000
Ene=     9.92069E-03
Spin= Alpha
Occup=   0.0000000000
   1      -0.27413533
   2      24.00053391
   3      -2.10788281
   4      -0.17867470
   5       0.55194941
   6       0.03731987
   7       0.08073613
   8      -0.05485143
   9      -0.00205617
  10      -0.00019973
  11      -0.11069161
  12      -0.00000000
  13      -0.00000000
  14       9.27815570
  15       0.00000000
  16       0.00000000
  17      -0.85688161
  18      -0.00000000
  19      -0.00000000
  20      -0.38894217
  21      -0.00000000
  22      -0.00000000
  23      -0.07994178
  24      -0.05144125
  25      -0.05144125
  26      -0.00000000
  27      -0.00000000
  28       0.00000000
  29       1.86140611
  30      -0.07951204
  31      -0.07951204
  32       0.00000000
  33       0.00000000
  34      -0.00000000
  35       0.27413533
  36     -24.00053391
  37       2.10788281
  38       0.17867470
  39      -0.55194941
  40      -0.03731987
  41      -0.08073613
  42       0.05485143
  43       0.00205617
  44       0.00019973
  45      -0.11069161
  46       0.00000000
  47       0.00000000
  48       9.27815570
  49      -0.00000000
  50      -0.00000000
  51      -0.85688161
  52       0.00000000
  53       0.00000000
  54      -0.38894217
  55       0.00000000
  56       0.00000000
  57       0.07994178
  58       0.05144125
  59       0.05144125
  60      -0.00000000
  61      -0.00000000
  62      -0.00000000
  63      -1.86140611
  64       0.07951204
  65       0.07951204
  66       0.00000000
  67       0.00000000
  68       0.00000000
Ene=     1.02577E-02
Spin= Alpha
Occup=   0.0000000000
   1      -0.37452182
   2       0.27172129
   3       0.56955238
   4      -1.29447726
   5       0.67186794
   6      -0.05311221
   7       0.07618658
   8      -0.04283206
   9       0.00020781
  10      -0.00041414
  11       1.36945164
  12      -0.00000000
  13      -0.00000000
  14      -0.37206174
  15       0.00000000
  16       0.00000000
  17       0.61586707
  18      -0.00000000
  19      -0.00000000
  20      -0.75910129
  21       0.00000000
  22       0.00000000
  23       0.46689907
  24      -0.02739980
  25      -0.02739980
  26      -0.00000000
  27      -0.00000000
  28       0.00000000
  29      -0.21613546
  30      -0.09404446
  31      -0.09404446
  32       0.00000000
  33       0.00000000
  34       0.00000000
  35      -0.37452182
  36       0.27172130
  37       0.56955239
  38      -1.29447726
  39       0.67186794
  40      -0.05311221
  41       0.07618658
  42      -0.04283206
  43       0.00020781
  44      -0.00041414
  45      -1.36945164
  46       0.00000000
  47       0.00000000
  48       0.37206173
  49      -0.00000000
  50      -0.00000000
  51      -0.61586707
  52       0.00000000
  53      -0.00000000
  54       0.75910129
  55      -0.00000000
  56      -0.00000000
  57       0.46689907
  58      -0.02739980
  59      -0.02739980
  60      -0.00000000
  61      -0.00000000
  62       0.00000000
  63      -0.21613546
  64      -0.09404446
  65      -0.09404446
  66       0.00000000
  67       0.00000000
  68      -0.00000000
Ene=     1.46181E-02
Spin= Alpha
Occup=   0.0000000000
   1       0.00000000
   2      -0.00000000
   3       0.00000000
   4      -0.00000000
   5       0.00000000
   6      -0.00000000
   7      -0.00000000
   8       0.00000000
   9      -0.00000000
  10       0.00000000
  11      -0.00000000
  12      -0.01600514
  13       0.07298195
  14      -0.00000000
  15       0.05049959
  16      -0.23027344
  17       0.00000000
  18      -0.21079770
  19       0.96121806
  20      -0.00000000
  21       0.20206015
  22      -0.92137563
  23      -0.00000000
  24      -0.00000000
  25      -0.00000000
  26       0.00662461
  27      -0.03020760
  28       0.00000000
  29      -0.00000000
  30      -0.00000000
  31      -0.00000000
  32      -0.01994448
  33       0.09094497
  34      -0.00000000
  35       0.00000000
  36       0.00000000
  37       0.00000000
  38      -0.00000000
  39       0.00000000
  40      -0.00000000
  41      -0.00000000
  42       0.00000000
  43      -0.00000000
  44      -0.00000000
  45       0.00000000
  46      -0.01600514
  47       0.07298195
  48      -0.00000000
  49       0.05049959
  50      -0.23027344
  51       0.00000000
  52      -0.21079770
  53       0.96121806
  54      -0.00000000
  55       0.20206015
  56      -0.92137563
  57      -0.00000000
  58       0.00000000
  59       0.00000000
  60      -0.00662461
  61       0.03020760
  62      -0.00000000
  63       0.00000000
  64       0.00000000
  65       0.00000000
  66       0.01994448
  67      -0.09094497
  68       0.00000000
Ene=     1.46181E-02
Spin= Alpha
Occup=   0.0000000000
   1      -0.00000000
   2      -0.00000000
   3       0.00000000
   4      -0.00000000
   5       0.00000000
   6      -0.00000000
   7       0.00000000
   8      -0.00000000
   9      -0.00000000
  10       0.00000000
  11       0.00000000
  12      -0.07298195
  13      -0.01600514
  14      -0.00000000
  15       0.23027344
  16       0.05049959
  17       0.00000000
  18      -0.96121806
  19      -0.21079770
  20      -0.00000000
  21       0.92137563
  22       0.20206015
  23       0.00000000
  24      -0.00000000
  25      -0.00000000
  26       0.03020760
  27       0.00662461
  28       0.00000000
  29      -0.00000000
  30      -0.00000000
  31      -0.00000000
  32      -0.09094497
  33      -0.01994448
  34      -0.00000000
  35      -0.00000000
  36       0.00000000
  37      -0.00000000
  38       0.00000000
  39      -0.00000000
  40       0.00000000
  41      -0.00000000
  42       0.00000000
  43      -0.00000000
  44       0.00000000
  45      -0.00000000
  46      -0.07298195
  47      -0.01600514
  48      -0.00000000
  49       0.23027344
  50       0.05049959
  51       0.00000000
  52      -0.96121806
  53      -0.21079770
  54      -0.00000000
  55       0.92137563
  56       0.20206015
  57       0.00000000
  58       0.00000000
  59       0.00000000
  60      -0.03020760
  61      -0.00662461
  62      -0.00000000
  63       0.00000000
  64       0.00000000
  65       0.00000000
  66       0.09094497
  67       0.01994448
  68       0.00000000
Ene=     1.56063E-02
Spin= Alpha
Occup=   0.0000000000
   1      -0.28658841
   2      22.24603802
   3      -1.60492818
   4       0.78918933
   5      -0.28136396
   6       0.06173878
   7      -0.02218568
   8       0.00785037
   9      -0.00115029
  10       0.00023394
  11       0.03157967
  12      -0.00000000
  13      -0.00000000
  14       8.75303795
  15       0.00000000
  16       0.00000000
  17      -1.03500221
  18      -0.00000000
  19      -0.00000000
  20       0.96114771
  21       0.00000000
  22       0.00000000
  23       0.07169900
  24       0.06947410
  25       0.06947410
  26      -0.00000000
  27      -0.00000000
  28       0.00000000
  29       2.00160596
  30       0.19209556
  31       0.19209556
  32       0.00000000
  33       0.00000000
  34      -0.00000000
  35       0.28658841
  36     -22.24603802
  37       1.60492818
  38      -0.78918933
  39       0.28136396
  40      -0.06173878
  41       0.02218568
  42      -0.00785037
  43       0.00115029
  44      -0.00023394
  45       0.03157967
  46       0.00000000
  47       0.00000000
  48       8.75303795
  49      -0.00000000
  50      -0.00000000
  51      -1.03500221
  52       0.00000000
  53       0.00000000
  54       0.96114771
  55      -0.00000000
  56      -0.00000000
  57      -0.07169900
  58      -0.06947410
  59      -0.06947410
  60      -0.00000000
  61      -0.00000000
  62      -0.00000000
  63      -2.00160596
  64      -0.19209556
  65      -0.19209556
  66       0.00000000
  67       0.00000000
  68       0.00000000
Ene=     1.58044E-02
Spin= Alpha
Occup=   0.0000000000
   1      -0.14160224
   2       0.02330619
   3       0.25134047
   4      -1.32161554
   5       0.79572165
   6       0.01844853
   7       0.08466793
   8      -0.05543716
   9      -0.00173889
  10      -0.00025359
  11       0.46292164
  12      -0.00000000
  13      -0.00000000
  14      -0.04874444
  15       0.00000000
  16       0.00000000
  17       0.22123027
  18      -0.00000000
  19      -0.00000000
  20       0.27109654
  21       0.00000000
  22       0.00000000
  23       0.15631011
  24      -0.00593008
  25      -0.00593008
  26      -0.00000000
  27      -0.00000000
  28       0.00000000
  29      -0.00917617
  30      -0.02694807
  31      -0.02694807
  32       0.00000000
  33       0.00000000
  34      -0.00000000
  35      -0.14160224
  36       0.02330619
  37       0.25134047
  38      -1.32161554
  39       0.79572165
  40       0.01844853
  41       0.08466793
  42      -0.05543716
  43      -0.00173889
  44      -0.00025359
  45      -0.46292164
  46       0.00000000
  47       0.00000000
  48       0.04874444
  49      -0.00000000
  50      -0.00000000
  51      -0.22123027
  52       0.00000000
  53       0.00000000
  54      -0.27109654
  55      -0.00000000
  56      -0.00000000
  57       0.15631011
  58      -0.00593008
  59      -0.00593008
  60      -0.00000000
  61      -0.00000000
  62      -0.00000000
  63      -0.00917616
  64      -0.02694807
  65      -0.02694807
  66       0.00000000
  67       0.00000000
  68      -0.00000000
Ene=     1.89040E-02
Spin= Alpha
Occup=   0.0000000000
   1       0.37003402
   2     -30.77229261
   3       3.84535675
   4      -2.54635751
   5       1.09007545
   6      -0.01298035
   7       0.09961743
   8      -0.06167718
   9      -0.00122736
  10      -0.00038444
  11       0.06825240
  12       0.00000000
  13       0.00000000
  14     -11.99832824
  15      -0.00000000
  16      -0.00000000
  17       1.78174498
  18       0.00000000
  19       0.00000000
  20       0.04147413
  21      -0.00000000
  22      -0.00000000
  23       0.00897038
  24       0.00992060
  25       0.00992060
  26       0.00000000
  27       0.00000000
  28      -0.00000000
  29      -2.52920667
  30      -0.07154967
  31      -0.07154967
  32      -0.00000000
  33      -0.00000000
  34       0.00000000
  35      -0.37003402
  36      30.77229261
  37      -3.84535675
  38       2.54635751
  39      -1.09007545
  40       0.01298035
  41      -0.09961743
  42       0.06167718
  43       0.00122736
  44       0.00038444
  45       0.06825240
  46      -0.00000000
  47      -0.00000000
  48     -11.99832824
  49       0.00000000
  50       0.00000000
  51       1.78174498
  52      -0.00000000
  53      -0.00000000
  54       0.04147413
  55       0.00000000
  56       0.00000000
  57      -0.00897038
  58      -0.00992060
  59      -0.00992060
  60       0.00000000
  61       0.00000000
  62       0.00000000
  63       2.52920667
  64       0.07154967
  65       0.07154967
  66      -0.00000000
  67      -0.00000000
  68      -0.00000000
Ene=     2.11564E-02
Spin= Alpha
Occup=   0.0000000000
   1       0.00000000
   2      -0.00000000
   3      -0.00000000
   4       0.00000000
   5      -0.00000000
   6       0.00000000
   7      -0.00000000
   8       0.00000000
   9       0.00000000
  10       0.00000000
  11       0.00000000
  12       5.18480678
  13       1.68685837
  14      -0.00000000
  15      -1.17789881
  16      -0.38322517
  17       0.00000000
  18       1.57660546
  19       0.51294296
  20      -0.00000000
  21      -0.76666056
  22      -0.24943027
  23      -0.00000000
  24      -0.00000000
  25      -0.00000000
  26       1.04039544
  27       0.33848894
  28       0.00000000
  29      -0.00000000
  30      -0.00000000
  31      -0.00000000
  32      -0.21828230
  33      -0.07101737
  34      -0.00000000
  35      -0.00000000
  36       0.00000000
  37      -0.00000000
  38      -0.00000000
  39       0.00000000
  40       0.00000000
  41       0.00000000
  42      -0.00000000
  43      -0.00000000
  44      -0.00000000
  45       0.00000000
  46      -5.18480678
  47      -1.68685837
  48      -0.00000000
  49       1.17789881
  50       0.38322517
  51       0.00000000
  52      -1.57660546
  53      -0.51294296
  54      -0.00000000
  55       0.76666056
  56       0.24943027
  57       0.00000000
  58       0.00000000
  59       0.00000000
  60       1.04039544
  61       0.33848894
  62      -0.00000000
  63       0.00000000
  64       0.00000000
  65       0.00000000
  66      -0.21828230
  67      -0.07101737
  68       0.00000000
Ene=     2.11564E-02
Spin= Alpha
Occup=   0.0000000000
   1      -0.00000000
   2       0.00000000
   3       0.00000000
   4      -0.00000000
   5       0.00000000
   6       0.00000000
   7       0.00000000
   8      -0.00000000
   9      -0.00000000
  10      -0.00000000
  11      -0.00000000
  12       1.68685837
  13      -5.18480678
  14       0.00000000
  15      -0.38322517
  16       1.17789881
  17      -0.00000000
  18       0.51294296
  19      -1.57660546
  20       0.00000000
  21      -0.24943027
  22       0.76666056
  23      -0.00000000
  24       0.00000000
  25       0.00000000
  26       0.33848894
  27      -1.04039544
  28      -0.00000000
  29       0.00000000
  30       0.00000000
  31       0.00000000
  32      -0.07101737
  33       0.21828230
  34       0.00000000
  35       0.00000000
  36      -0.00000000
  37      -0.00000000
  38       0.00000000
  39      -0.00000000
  40      -0.00000000
  41      -0.00000000
  42       0.00000000
  43       0.00000000
  44       0.00000000
  45       0.00000000
  46      -1.68685837
  47       5.18480678
  48       0.00000000
  49       0.38322517
  50      -1.17789881
  51      -0.00000000
  52      -0.51294296
  53       1.57660546
  54       0.00000000
  55       0.24943027
  56      -0.76666056
  57      -0.00000000
  58      -0.00000000
  59      -0.00000000
  60       0.33848894
  61      -1.04039544
  62       0.00000000
  63      -0.00000000
  64      -0.00000000
  65      -0.00000000
  66      -0.07101737
  67       0.21828230
  68      -0.00000000
Ene=     2.64696E-02
Spin= Alpha
Occup=   0.0000000000
   1      -0.99852985
   2       1.29588480
   3      -1.83057695
   4       1.26765701
   5      -0.43813666
   6      -0.04601498
   7      -0.03110274
   8       0.02406306
   9       0.00154122
  10       0.00000234
  11       3.50182425
  12       0.00000000
  13       0.00000000
  14      -0.91832210
  15      -0.00000000
  16       0.00000000
  17       1.14982210
  18       0.00000000
  19      -0.00000000
  20      -0.62813479
  21       0.00000000
  22       0.00000000
  23       1.21435397
  24      -0.06316223
  25      -0.06316223
  26       0.00000000
  27       0.00000000
  28       0.00000000
  29      -0.64972384
  30      -0.30637732
  31      -0.30637732
  32      -0.00000000
  33       0.00000000
  34      -0.00000000
  35      -0.99852985
  36       1.29588480
  37      -1.83057695
  38       1.26765701
  39      -0.43813666
  40      -0.04601498
  41      -0.03110274
  42       0.02406306
  43       0.00154122
  44       0.00000234
  45      -3.50182425
  46      -0.00000000
  47      -0.00000000
  48       0.91832211
  49       0.00000000
  50      -0.00000000
  51      -1.14982210
  52      -0.00000000
  53       0.00000000
  54       0.62813479
  55      -0.00000000
  56      -0.00000000
  57       1.21435397
  58      -0.06316223
  59      -0.06316223
  60       0.00000000
  61       0.00000000
  62      -0.00000000
  63      -0.64972384
  64      -0.30637732
  65      -0.30637732
  66      -0.00000000
  67       0.00000000
  68       0.00000000
Ene=     2.82252E-02
Spin= Alpha
Occup=   0.0000000000
   1      -0.69159285
   2      49.03503368
   3      -0.88243175
   4      -0.45749149
   5       0.18582021
   6       0.01792452
   7       0.01380238
   8      -0.01031468
   9      -0.00058380
  10      -0.00001225
  11       0.31507747
  12      -0.00000000
  13      -0.00000000
  14      19.76070942
  15       0.00000000
  16       0.00000000
  17      -2.93581918
  18      -0.00000000
  19      -0.00000000
  20       0.74407578
  21      -0.00000000
  22       0.00000000
  23       0.43104841
  24       0.36929409
  25       0.36929409
  26      -0.00000000
  27      -0.00000000
  28       0.00000000
  29       5.02373744
  30       0.97624980
  31       0.97624980
  32       0.00000000
  33       0.00000000
  34      -0.00000000
  35       0.69159285
  36     -49.03503368
  37       0.88243175
  38       0.45749149
  39      -0.18582021
  40      -0.01792452
  41      -0.01380238
  42       0.01031468
  43       0.00058380
  44       0.00001225
  45       0.31507747
  46       0.00000000
  47       0.00000000
  48      19.76070942
  49      -0.00000000
  50      -0.00000000
  51      -2.93581918
  52       0.00000000
  53       0.00000000
  54       0.74407578
  55       0.00000000
  56      -0.00000000
  57      -0.43104841
  58      -0.36929409
  59      -0.36929409
  60      -0.00000000
  61      -0.00000000
  62      -0.00000000
  63      -5.02373744
  64      -0.97624980
  65      -0.97624980
  66       0.00000000
  67       0.00000000
  68       0.00000000
Ene=     3.00810E-02
Spin= Alpha
Occup=   0.0000000000
   1       5.43317592
   2       2.37446187
   3      -4.78149406
   4       2.09450544
   5      -0.45644728
   6      -0.10520243
   7      -0.02222607
   8       0.02429598
   9       0.00279741
  10      -0.00017103
  11      -4.30670724
  12       0.00000000