 Molden2AIM, Version 3.1.0 (02/25/2015)           Time: Thu Oct 17 19:52:45 2024
GAUSSIAN             68 MOL ORBITALS     68 PRIMITIVES        2 NUCLEI
  Be   1    (CENTRE  1)   0.00000000  0.00000000  0.00000000  CHARGE =  4.0
  Be   2    (CENTRE  2)  11.00000000  0.00000000  0.00000000  CHARGE =  4.0
CENTRE ASSIGNMENTS    1  1  1  1  1  1  1  1  1  1  1  1  1  1  1  1  1  1  1  1
CENTRE ASSIGNMENTS    1  1  1  1  1  1  1  1  1  1  1  1  1  1  2  2  2  2  2  2
CENTRE ASSIGNMENTS    2  2  2  2  2  2  2  2  2  2  2  2  2  2  2  2  2  2  2  2
CENTRE ASSIGNMENTS    2  2  2  2  2  2  2  2
TYPE ASSIGNMENTS      1  1  1  1  1  1  1  1  1  1  2  3  4  2  3  4  2  3  4  2
TYPE ASSIGNMENTS      3  4  5  6  7  8  9 10  5  6  7  8  9 10  1  1  1  1  1  1
TYPE ASSIGNMENTS      1  1  1  1  2  3  4  2  3  4  2  3  4  2  3  4  5  6  7  8
TYPE ASSIGNMENTS      9 10  5  6  7  8  9 10
EXPONENTS  0.1000000D-03 0.3000000D-03 0.9000000D-03 0.2700000D-02 0.8100000D-02
EXPONENTS  0.2430000D-01 0.7290000D-01 0.2187000D+00 0.6561000D+00 0.1968300D+01
EXPONENTS  0.1000000D-03 0.1000000D-03 0.1000000D-03 0.3000000D-03 0.3000000D-03
EXPONENTS  0.3000000D-03 0.9000000D-03 0.9000000D-03 0.9000000D-03 0.2700000D-02
EXPONENTS  0.2700000D-02 0.2700000D-02 0.1000000D-03 0.1000000D-03 0.1000000D-03
EXPONENTS  0.1000000D-03 0.1000000D-03 0.1000000D-03 0.3000000D-03 0.3000000D-03
EXPONENTS  0.3000000D-03 0.3000000D-03 0.3000000D-03 0.3000000D-03 0.1000000D-03
EXPONENTS  0.3000000D-03 0.9000000D-03 0.2700000D-02 0.8100000D-02 0.2430000D-01
EXPONENTS  0.7290000D-01 0.2187000D+00 0.6561000D+00 0.1968300D+01 0.1000000D-03
EXPONENTS  0.1000000D-03 0.1000000D-03 0.3000000D-03 0.3000000D-03 0.3000000D-03
EXPONENTS  0.9000000D-03 0.9000000D-03 0.9000000D-03 0.2700000D-02 0.2700000D-02
EXPONENTS  0.2700000D-02 0.1000000D-03 0.1000000D-03 0.1000000D-03 0.1000000D-03
EXPONENTS  0.1000000D-03 0.1000000D-03 0.3000000D-03 0.3000000D-03 0.3000000D-03
EXPONENTS  0.3000000D-03 0.3000000D-03 0.3000000D-03
MO    1     MO 0.0        OCC NO =    1.0000000  ORB. ENERGY =   -0.008853
  0.67380030D-05  0.19459204D-03 -0.10005465D-03 -0.76336221D-03 -0.46392381D-02
 -0.10421903D-01 -0.12306011D-01  0.24411896D-01  0.42292942D-02 -0.27848710D-03
  0.10045113D-06 -0.00000000D+00  0.00000000D+00 -0.31022375D-04 -0.00000000D+00
 -0.00000000D+00  0.54293089D-05  0.00000000D+00  0.00000000D+00 -0.26424222D-04
 -0.00000000D+00 -0.00000000D+00 -0.14007297D-09 -0.22549307D-09 -0.22549307D-09
 -0.00000000D+00  0.00000000D+00  0.00000000D+00 -0.10839980D-06 -0.66862666D-08
 -0.66862666D-08 -0.00000000D+00 -0.00000000D+00 -0.00000000D+00  0.67380030D-05
  0.19459204D-03 -0.10005465D-03 -0.76336221D-03 -0.46392381D-02 -0.10421903D-01
 -0.12306011D-01  0.24411896D-01  0.42292942D-02 -0.27848710D-03 -0.10045113D-06
  0.00000000D+00 -0.00000000D+00  0.31022375D-04  0.00000000D+00  0.00000000D+00
 -0.54293089D-05 -0.00000000D+00 -0.00000000D+00  0.26424222D-04  0.00000000D+00
  0.00000000D+00 -0.14007297D-09 -0.22549307D-09 -0.22549307D-09 -0.00000000D+00
  0.00000000D+00 -0.00000000D+00 -0.10839980D-06 -0.66862666D-08 -0.66862666D-08
 -0.00000000D+00 -0.00000000D+00  0.00000000D+00
MO    2     MO 0.0        OCC NO =    0.0000000  ORB. ENERGY =    0.001976
  0.34610332D-05  0.39917818D-05 -0.45158511D-01  0.88627121D-02 -0.75095337D-02
 -0.50412376D-02 -0.77132009D-02  0.14492816D-01  0.23508739D-02 -0.10229196D-03
 -0.11101373D-05  0.00000000D+00 -0.00000000D+00 -0.23966985D-05 -0.00000000D+00
  0.00000000D+00 -0.37518695D-03  0.00000000D+00 -0.00000000D+00  0.36071454D-03
 -0.00000000D+00  0.00000000D+00 -0.38890255D-07 -0.47672037D-07 -0.47672037D-07
  0.00000000D+00 -0.00000000D+00  0.00000000D+00 -0.56989275D-06 -0.47176948D-06
 -0.47176948D-06 -0.00000000D+00  0.00000000D+00  0.00000000D+00 -0.34610332D-05
 -0.39917818D-05  0.45158511D-01 -0.88627121D-02  0.75095337D-02  0.50412376D-02
  0.77132009D-02 -0.14492816D-01 -0.23508739D-02  0.10229196D-03 -0.11101373D-05
 -0.00000000D+00  0.00000000D+00 -0.23966985D-05  0.00000000D+00 -0.00000000D+00
 -0.37518695D-03 -0.00000000D+00  0.00000000D+00  0.36071454D-03  0.00000000D+00
 -0.00000000D+00  0.38890255D-07  0.47672037D-07  0.47672037D-07  0.00000000D+00
 -0.00000000D+00 -0.00000000D+00  0.56989275D-06  0.47176948D-06  0.47176948D-06
 -0.00000000D+00  0.00000000D+00  0.00000000D+00
MO    3     MO 0.0        OCC NO =    0.0000000  ORB. ENERGY =    0.002556
 -0.11444729D-03 -0.11132387D-03  0.43866111D-02 -0.58427035D-02  0.24686648D-02
 -0.54266255D-02 -0.44131202D-03  0.36313177D-02  0.16468306D-02 -0.37080686D-03
 -0.68166287D-07 -0.00000000D+00  0.00000000D+00 -0.79150825D-04 -0.00000000D+00
 -0.00000000D+00  0.41304321D-04  0.00000000D+00  0.00000000D+00 -0.19059810D-04
 -0.00000000D+00 -0.00000000D+00  0.35114940D-08  0.37275378D-08  0.37275378D-08
 -0.00000000D+00  0.00000000D+00  0.00000000D+00 -0.14158038D-06  0.11487908D-06
  0.11487908D-06 -0.00000000D+00 -0.00000000D+00 -0.00000000D+00 -0.11444729D-03
 -0.11132387D-03  0.43866111D-02 -0.58427035D-02  0.24686648D-02 -0.54266255D-02
 -0.44131202D-03  0.36313177D-02  0.16468306D-02 -0.37080686D-03  0.68166287D-07
  0.00000000D+00 -0.00000000D+00  0.79150825D-04  0.00000000D+00  0.00000000D+00
 -0.41304321D-04 -0.00000000D+00 -0.00000000D+00  0.19059810D-04  0.00000000D+00
  0.00000000D+00  0.35114940D-08  0.37275378D-08  0.37275378D-08 -0.00000000D+00
  0.00000000D+00 -0.00000000D+00 -0.14158038D-06  0.11487908D-06  0.11487908D-06
 -0.00000000D+00 -0.00000000D+00  0.00000000D+00
MO    4     MO 0.0        OCC NO =    0.0000000  ORB. ENERGY =    0.003559
 -0.00000000D+00 -0.00000000D+00 -0.00000000D+00  0.00000000D+00 -0.00000000D+00
  0.00000000D+00 -0.00000000D+00 -0.00000000D+00  0.00000000D+00 -0.00000000D+00
 -0.00000000D+00 -0.96081392D-07 -0.38378178D-06  0.00000000D+00  0.16418342D-05
  0.65580481D-05 -0.00000000D+00 -0.30254208D-04 -0.12084566D-03  0.00000000D+00
 -0.64194267D-05 -0.25641396D-04 -0.00000000D+00  0.00000000D+00 -0.00000000D+00
 -0.10042297D-07 -0.40112375D-07 -0.00000000D+00  0.00000000D+00  0.00000000D+00
  0.00000000D+00  0.36950832D-07  0.14759430D-06  0.00000000D+00 -0.00000000D+00
 -0.00000000D+00  0.00000000D+00 -0.00000000D+00 -0.00000000D+00 -0.00000000D+00
 -0.00000000D+00  0.00000000D+00 -0.00000000D+00  0.00000000D+00  0.00000000D+00
 -0.96081392D-07 -0.38378178D-06 -0.00000000D+00  0.16418342D-05  0.65580481D-05
 -0.00000000D+00 -0.30254208D-04 -0.12084566D-03  0.00000000D+00 -0.64194267D-05
 -0.25641396D-04 -0.00000000D+00  0.00000000D+00  0.00000000D+00  0.10042297D-07
  0.40112375D-07  0.00000000D+00  0.00000000D+00 -0.00000000D+00 -0.00000000D+00
 -0.36950832D-07 -0.14759430D-06 -0.00000000D+00
MO    5     MO 0.0        OCC NO =    0.0000000  ORB. ENERGY =    0.003559
 -0.00000000D+00 -0.00000000D+00 -0.00000000D+00  0.00000000D+00 -0.00000000D+00
  0.00000000D+00  0.00000000D+00 -0.00000000D+00 -0.00000000D+00  0.00000000D+00
 -0.00000000D+00  0.38378178D-06 -0.96081392D-07  0.00000000D+00 -0.65580481D-05
  0.16418342D-05 -0.00000000D+00  0.12084566D-03 -0.30254208D-04  0.00000000D+00
  0.25641396D-04 -0.64194267D-05 -0.00000000D+00 -0.00000000D+00 -0.00000000D+00
  0.40112375D-07 -0.10042297D-07  0.00000000D+00  0.00000000D+00  0.00000000D+00
  0.00000000D+00 -0.14759430D-06  0.36950832D-07 -0.00000000D+00 -0.00000000D+00
 -0.00000000D+00  0.00000000D+00 -0.00000000D+00 -0.00000000D+00 -0.00000000D+00
 -0.00000000D+00  0.00000000D+00  0.00000000D+00 -0.00000000D+00  0.00000000D+00
  0.38378178D-06 -0.96081392D-07 -0.00000000D+00 -0.65580481D-05  0.16418342D-05
 -0.00000000D+00  0.12084566D-03 -0.30254208D-04  0.00000000D+00  0.25641396D-04
 -0.64194267D-05 -0.00000000D+00  0.00000000D+00  0.00000000D+00 -0.40112375D-07
  0.10042297D-07 -0.00000000D+00  0.00000000D+00 -0.00000000D+00 -0.00000000D+00
  0.14759430D-06 -0.36950832D-07  0.00000000D+00
MO    6     MO 0.0        OCC NO =    0.0000000  ORB. ENERGY =    0.005329
  0.70763386D-05  0.85167467D-05 -0.99824906D-01  0.21392886D-01  0.43764740D-02
  0.72777126D-02  0.67248106D-02 -0.14174381D-01 -0.28525840D-02  0.27528936D-03
 -0.22639979D-05  0.00000000D+00 -0.00000000D+00 -0.54085687D-05 -0.00000000D+00
  0.00000000D+00 -0.82362969D-03  0.00000000D+00 -0.00000000D+00  0.23507064D-03
 -0.00000000D+00  0.00000000D+00 -0.79229517D-07 -0.97110698D-07 -0.97110698D-07
  0.00000000D+00 -0.00000000D+00 -0.00000000D+00 -0.11802193D-05 -0.97913030D-06
 -0.97913030D-06 -0.00000000D+00  0.00000000D+00  0.00000000D+00 -0.70763386D-05
 -0.85167467D-05  0.99824906D-01 -0.21392886D-01 -0.43764740D-02 -0.72777126D-02
 -0.67248106D-02  0.14174381D-01  0.28525840D-02 -0.27528936D-03 -0.22639979D-05
 -0.00000000D+00  0.00000000D+00 -0.54085687D-05  0.00000000D+00 -0.00000000D+00
 -0.82362969D-03 -0.00000000D+00  0.00000000D+00  0.23507064D-03  0.00000000D+00
 -0.00000000D+00  0.79229517D-07  0.97110698D-07  0.97110698D-07  0.00000000D+00
 -0.00000000D+00  0.00000000D+00  0.11802193D-05  0.97913030D-06  0.97913030D-06
 -0.00000000D+00  0.00000000D+00 -0.00000000D+00
MO    7     MO 0.0        OCC NO =    0.0000000  ORB. ENERGY =    0.006682
  0.22061692D-03  0.10042484D-01 -0.15106733D-02 -0.50818646D-02  0.15741408D-02
 -0.98805329D-03  0.11007558D-02 -0.11181393D-02  0.18106746D-03 -0.11066528D-03
  0.50549167D-05 -0.00000000D+00  0.00000000D+00 -0.16691608D-02 -0.00000000D+00
 -0.00000000D+00  0.50466426D-03  0.00000000D+00  0.00000000D+00  0.46156549D-03
  0.00000000D+00  0.00000000D+00 -0.40084408D-08 -0.70745250D-08 -0.70745250D-08
 -0.00000000D+00  0.00000000D+00 -0.00000000D+00 -0.56877390D-05 -0.24700231D-06
 -0.24700231D-06 -0.00000000D+00 -0.00000000D+00 -0.00000000D+00  0.22061692D-03
  0.10042484D-01 -0.15106733D-02 -0.50818646D-02  0.15741408D-02 -0.98805329D-03
  0.11007558D-02 -0.11181393D-02  0.18106746D-03 -0.11066528D-03 -0.50549167D-05
  0.00000000D+00 -0.00000000D+00  0.16691608D-02  0.00000000D+00  0.00000000D+00
 -0.50466426D-03 -0.00000000D+00 -0.00000000D+00 -0.46156549D-03 -0.00000000D+00
 -0.00000000D+00 -0.40084408D-08 -0.70745250D-08 -0.70745250D-08 -0.00000000D+00
  0.00000000D+00  0.00000000D+00 -0.56877390D-05 -0.24700231D-06 -0.24700231D-06
 -0.00000000D+00 -0.00000000D+00  0.00000000D+00
MO    8     MO 0.0        OCC NO =    0.0000000  ORB. ENERGY =    0.006801
  0.00000000D+00  0.00000000D+00  0.00000000D+00  0.00000000D+00  0.00000000D+00
 -0.00000000D+00  0.00000000D+00 -0.00000000D+00  0.00000000D+00 -0.00000000D+00
 -0.00000000D+00 -0.15315898D-07  0.76815396D-08 -0.00000000D+00  0.16071194D-06
 -0.80603597D-07  0.00000000D+00 -0.50632377D-03  0.25394213D-03  0.00000000D+00
 -0.50504039D-03  0.25329847D-03 -0.00000000D+00 -0.00000000D+00 -0.00000000D+00
  0.85420772D-08 -0.42842009D-08 -0.00000000D+00 -0.00000000D+00 -0.00000000D+00
 -0.00000000D+00 -0.17274066D-06  0.86636531D-07  0.00000000D+00  0.00000000D+00
  0.00000000D+00 -0.00000000D+00 -0.00000000D+00  0.00000000D+00 -0.00000000D+00
  0.00000000D+00  0.00000000D+00  0.00000000D+00 -0.00000000D+00 -0.00000000D+00
  0.15315898D-07 -0.76815396D-08  0.00000000D+00 -0.16071194D-06  0.80603597D-07
  0.00000000D+00  0.50632377D-03 -0.25394213D-03 -0.00000000D+00  0.50504039D-03
 -0.25329847D-03  0.00000000D+00  0.00000000D+00  0.00000000D+00  0.85420772D-08
 -0.42842009D-08  0.00000000D+00  0.00000000D+00  0.00000000D+00  0.00000000D+00
 -0.17274066D-06  0.86636531D-07 -0.00000000D+00
MO    9     MO 0.0        OCC NO =    0.0000000  ORB. ENERGY =    0.006801
  0.00000000D+00  0.00000000D+00  0.00000000D+00 -0.00000000D+00  0.00000000D+00
 -0.00000000D+00  0.00000000D+00 -0.00000000D+00  0.00000000D+00 -0.00000000D+00
  0.00000000D+00 -0.76815396D-08 -0.15315898D-07 -0.00000000D+00  0.80603597D-07
  0.16071194D-06  0.00000000D+00 -0.25394213D-03 -0.50632377D-03  0.00000000D+00
 -0.25329847D-03 -0.50504039D-03 -0.00000000D+00 -0.00000000D+00 -0.00000000D+00
  0.42842009D-08  0.85420772D-08 -0.00000000D+00 -0.00000000D+00 -0.00000000D+00
 -0.00000000D+00 -0.86636531D-07 -0.17274066D-06 -0.00000000D+00  0.00000000D+00
  0.00000000D+00 -0.00000000D+00 -0.00000000D+00  0.00000000D+00 -0.00000000D+00
  0.00000000D+00 -0.00000000D+00  0.00000000D+00 -0.00000000D+00 -0.00000000D+00
  0.76815396D-08  0.15315898D-07  0.00000000D+00 -0.80603597D-07 -0.16071194D-06
 -0.00000000D+00  0.25394213D-03  0.50632377D-03 -0.00000000D+00  0.25329847D-03
  0.50504039D-03 -0.00000000D+00 -0.00000000D+00 -0.00000000D+00  0.42842009D-08
  0.85420772D-08  0.00000000D+00 -0.00000000D+00 -0.00000000D+00 -0.00000000D+00
 -0.86636531D-07 -0.17274066D-06  0.00000000D+00
MO   10     MO 0.0        OCC NO =    0.0000000  ORB. ENERGY =    0.009171
  0.00000000D+00 -0.00000000D+00  0.00000000D+00 -0.00000000D+00  0.00000000D+00
 -0.00000000D+00  0.00000000D+00 -0.00000000D+00  0.00000000D+00  0.00000000D+00
 -0.00000000D+00  0.37047856D-06  0.13356001D-06  0.00000000D+00 -0.63930370D-05
 -0.23047328D-05  0.00000000D+00  0.13758109D-03  0.49598903D-04 -0.00000000D+00
 -0.63783395D-03 -0.22994341D-03 -0.00000000D+00 -0.00000000D+00 -0.00000000D+00
  0.34979077D-07  0.12610192D-07  0.00000000D+00  0.00000000D+00 -0.00000000D+00
 -0.00000000D+00 -0.11847569D-06 -0.42711276D-07 -0.00000000D+00  0.00000000D+00
 -0.00000000D+00 -0.00000000D+00  0.00000000D+00 -0.00000000D+00  0.00000000D+00
 -0.00000000D+00  0.00000000D+00 -0.00000000D+00 -0.00000000D+00 -0.00000000D+00
  0.37047856D-06  0.13356001D-06 -0.00000000D+00 -0.63930370D-05 -0.23047328D-05
  0.00000000D+00  0.13758109D-03  0.49598903D-04 -0.00000000D+00 -0.63783395D-03
 -0.22994341D-03  0.00000000D+00  0.00000000D+00  0.00000000D+00 -0.34979077D-07
 -0.12610192D-07 -0.00000000D+00  0.00000000D+00  0.00000000D+00  0.00000000D+00
  0.11847569D-06  0.42711276D-07  0.00000000D+00
MO   11     MO 0.0        OCC NO =    0.0000000  ORB. ENERGY =    0.009171
 -0.00000000D+00 -0.00000000D+00  0.00000000D+00  0.00000000D+00  0.00000000D+00
 -0.00000000D+00  0.00000000D+00 -0.00000000D+00 -0.00000000D+00  0.00000000D+00
 -0.00000000D+00  0.13356001D-06 -0.37047856D-06  0.00000000D+00 -0.23047328D-05
  0.63930370D-05  0.00000000D+00  0.49598903D-04 -0.13758109D-03  0.00000000D+00
 -0.22994341D-03  0.63783395D-03 -0.00000000D+00 -0.00000000D+00 -0.00000000D+00
  0.12610192D-07 -0.34979077D-07 -0.00000000D+00  0.00000000D+00 -0.00000000D+00
 -0.00000000D+00 -0.42711276D-07  0.11847569D-06  0.00000000D+00 -0.00000000D+00
 -0.00000000D+00 -0.00000000D+00 -0.00000000D+00 -0.00000000D+00 -0.00000000D+00
 -0.00000000D+00  0.00000000D+00  0.00000000D+00 -0.00000000D+00  0.00000000D+00
  0.13356001D-06 -0.37047856D-06 -0.00000000D+00 -0.23047328D-05  0.63930370D-05
  0.00000000D+00  0.49598903D-04 -0.13758109D-03  0.00000000D+00 -0.22994341D-03
  0.63783395D-03  0.00000000D+00  0.00000000D+00  0.00000000D+00 -0.12610192D-07
  0.34979077D-07  0.00000000D+00  0.00000000D+00  0.00000000D+00  0.00000000D+00
  0.42711276D-07 -0.11847569D-06 -0.00000000D+00
MO   12     MO 0.0        OCC NO =    0.0000000  ORB. ENERGY =    0.010467
  0.25593325D-05  0.12001819D-03  0.45226038D+00  0.17803237D+00 -0.39039951D-02
  0.30033994D-02  0.42597758D-03 -0.21841333D-02 -0.82333997D-03  0.16474251D-03
 -0.10760621D-05 -0.00000000D+00  0.00000000D+00 -0.16276108D-04  0.00000000D+00
 -0.00000000D+00  0.45312586D-02 -0.00000000D+00  0.00000000D+00  0.62381001D-02
  0.00000000D+00 -0.00000000D+00 -0.89281518D-07 -0.18892626D-08 -0.18892626D-08
 -0.00000000D+00  0.00000000D+00  0.00000000D+00 -0.62998618D-06 -0.15370933D-05
 -0.15370933D-05  0.00000000D+00 -0.00000000D+00 -0.00000000D+00 -0.25593325D-05
 -0.12001819D-03 -0.45226038D+00 -0.17803237D+00  0.39039951D-02 -0.30033994D-02
 -0.42597758D-03  0.21841333D-02  0.82333997D-03 -0.16474251D-03 -0.10760621D-05
  0.00000000D+00 -0.00000000D+00 -0.16276109D-04 -0.00000000D+00  0.00000000D+00
  0.45312586D-02  0.00000000D+00 -0.00000000D+00  0.62381001D-02 -0.00000000D+00
  0.00000000D+00  0.89281518D-07  0.18892626D-08  0.18892626D-08 -0.00000000D+00
  0.00000000D+00 -0.00000000D+00  0.62998618D-06  0.15370933D-05  0.15370933D-05
  0.00000000D+00 -0.00000000D+00  0.00000000D+00
MO   13     MO 0.0        OCC NO =    0.0000000  ORB. ENERGY =    0.011002
 -0.80768324D-04  0.42609982D-02 -0.32583912D-02  0.13634073D-01 -0.18880369D-01
  0.30418617D-02 -0.10005130D-01  0.13506736D-01  0.16354262D-03  0.57458541D-03
  0.17726629D-05 -0.00000000D+00  0.00000000D+00 -0.73324746D-03 -0.00000000D+00
 -0.00000000D+00  0.13633559D-03  0.00000000D+00  0.00000000D+00 -0.17961729D-03
 -0.00000000D+00 -0.00000000D+00  0.46953470D-08  0.29535146D-08  0.29535146D-08
 -0.00000000D+00  0.00000000D+00 -0.00000000D+00 -0.24022931D-05  0.81049434D-08
  0.81049434D-08 -0.00000000D+00 -0.00000000D+00  0.00000000D+00 -0.80768324D-04
  0.42609982D-02 -0.32583913D-02  0.13634073D-01 -0.18880369D-01  0.30418617D-02
 -0.10005130D-01  0.13506736D-01  0.16354262D-03  0.57458541D-03 -0.17726629D-05
  0.00000000D+00 -0.00000000D+00  0.73324746D-03  0.00000000D+00  0.00000000D+00
 -0.13633559D-03 -0.00000000D+00 -0.00000000D+00  0.17961729D-03  0.00000000D+00
  0.00000000D+00  0.46953470D-08  0.29535146D-08  0.29535146D-08 -0.00000000D+00
  0.00000000D+00  0.00000000D+00 -0.24022931D-05  0.81049434D-08  0.81049434D-08
 -0.00000000D+00 -0.00000000D+00 -0.00000000D+00
MO   14     MO 0.0        OCC NO =    0.0000000  ORB. ENERGY =    0.014693
  0.00000000D+00  0.00000000D+00 -0.00000000D+00 -0.00000000D+00  0.00000000D+00
 -0.00000000D+00  0.00000000D+00 -0.00000000D+00  0.00000000D+00 -0.00000000D+00
  0.00000000D+00  0.60101027D-08  0.13943227D-07 -0.00000000D+00 -0.18075493D-07
 -0.41933590D-07  0.00000000D+00  0.32552133D-03  0.75519164D-03 -0.00000000D+00
 -0.79513800D-03 -0.18446766D-02 -0.00000000D+00 -0.00000000D+00 -0.00000000D+00
 -0.44355054D-08 -0.10290127D-07  0.00000000D+00 -0.00000000D+00 -0.00000000D+00
 -0.00000000D+00  0.91669913D-07  0.21266916D-06 -0.00000000D+00  0.00000000D+00
  0.00000000D+00 -0.00000000D+00 -0.00000000D+00  0.00000000D+00 -0.00000000D+00
  0.00000000D+00 -0.00000000D+00  0.00000000D+00 -0.00000000D+00 -0.00000000D+00
 -0.60101027D-08 -0.13943227D-07  0.00000000D+00  0.18075493D-07  0.41933590D-07
 -0.00000000D+00 -0.32552133D-03 -0.75519164D-03  0.00000000D+00  0.79513800D-03
  0.18446766D-02 -0.00000000D+00 -0.00000000D+00 -0.00000000D+00 -0.44355054D-08
 -0.10290127D-07 -0.00000000D+00 -0.00000000D+00 -0.00000000D+00 -0.00000000D+00
  0.91669913D-07  0.21266916D-06  0.00000000D+00
MO   15     MO 0.0        OCC NO =    0.0000000  ORB. ENERGY =    0.014693
  0.00000000D+00  0.00000000D+00 -0.00000000D+00  0.00000000D+00  0.00000000D+00
 -0.00000000D+00  0.00000000D+00 -0.00000000D+00  0.00000000D+00 -0.00000000D+00
  0.00000000D+00  0.13943227D-07 -0.60101027D-08 -0.00000000D+00 -0.41933590D-07
  0.18075493D-07 -0.00000000D+00  0.75519164D-03 -0.32552133D-03  0.00000000D+00
 -0.18446766D-02  0.79513800D-03  0.00000000D+00  0.00000000D+00  0.00000000D+00
 -0.10290127D-07  0.44355054D-08 -0.00000000D+00 -0.00000000D+00  0.00000000D+00
  0.00000000D+00  0.21266916D-06 -0.91669913D-07 -0.00000000D+00  0.00000000D+00
  0.00000000D+00  0.00000000D+00 -0.00000000D+00  0.00000000D+00 -0.00000000D+00
  0.00000000D+00  0.00000000D+00  0.00000000D+00 -0.00000000D+00 -0.00000000D+00
 -0.13943227D-07  0.60101027D-08  0.00000000D+00  0.41933590D-07 -0.18075493D-07
 -0.00000000D+00 -0.75519164D-03  0.32552133D-03  0.00000000D+00  0.18446766D-02
 -0.79513800D-03 -0.00000000D+00 -0.00000000D+00 -0.00000000D+00 -0.10290127D-07
  0.44355054D-08  0.00000000D+00 -0.00000000D+00 -0.00000000D+00 -0.00000000D+00
  0.21266916D-06 -0.91669913D-07  0.00000000D+00
MO   16     MO 0.0        OCC NO =    0.0000000  ORB. ENERGY =    0.014827
 -0.42592532D-03 -0.10084583D-01  0.50762130D-02  0.30657925D-03 -0.12270324D-01
  0.36300790D-02 -0.48317065D-02  0.53719247D-02 -0.54120725D-03  0.42664877D-03
 -0.52171856D-05  0.00000000D+00 -0.00000000D+00  0.15411500D-02  0.00000000D+00
  0.00000000D+00 -0.68847645D-03  0.00000000D+00  0.00000000D+00  0.15957825D-02
 -0.00000000D+00 -0.00000000D+00  0.11573665D-07  0.13650168D-07  0.13650168D-07
  0.00000000D+00 -0.00000000D+00  0.00000000D+00  0.54268196D-05  0.43676397D-06
  0.43676397D-06  0.00000000D+00  0.00000000D+00  0.00000000D+00 -0.42592532D-03
 -0.10084583D-01  0.50762130D-02  0.30657925D-03 -0.12270324D-01  0.36300790D-02
 -0.48317065D-02  0.53719247D-02 -0.54120725D-03  0.42664877D-03  0.52171856D-05
 -0.00000000D+00  0.00000000D+00 -0.15411500D-02 -0.00000000D+00 -0.00000000D+00
  0.68847645D-03 -0.00000000D+00 -0.00000000D+00 -0.15957825D-02  0.00000000D+00
  0.00000000D+00  0.11573665D-07  0.13650168D-07  0.13650168D-07  0.00000000D+00
 -0.00000000D+00 -0.00000000D+00  0.54268196D-05  0.43676397D-06  0.43676397D-06
  0.00000000D+00  0.00000000D+00 -0.00000000D+00
MO   17     MO 0.0        OCC NO =    0.0000000  ORB. ENERGY =    0.015223
 -0.62852498D-05 -0.10027140D-03 -0.23826205D+00  0.38982735D-02  0.25111491D-01
 -0.11920678D-02  0.12711137D-01 -0.18015169D-01 -0.73767973D-03 -0.59848551D-03
  0.21855415D-05  0.00000000D+00 -0.00000000D+00  0.19007381D-04 -0.00000000D+00
  0.00000000D+00 -0.26245750D-02 -0.00000000D+00  0.00000000D+00  0.10442143D-02
  0.00000000D+00 -0.00000000D+00  0.11161052D-06  0.59880238D-07  0.59880238D-07
  0.00000000D+00 -0.00000000D+00 -0.00000000D+00  0.13361755D-05  0.18439416D-05
  0.18439416D-05 -0.00000000D+00  0.00000000D+00  0.00000000D+00  0.62852498D-05
  0.10027140D-03  0.23826205D+00 -0.38982735D-02 -0.25111491D-01  0.11920678D-02
 -0.12711137D-01  0.18015169D-01  0.73767973D-03  0.59848551D-03  0.21855415D-05
 -0.00000000D+00  0.00000000D+00  0.19007381D-04  0.00000000D+00 -0.00000000D+00
 -0.26245750D-02  0.00000000D+00 -0.00000000D+00  0.10442143D-02 -0.00000000D+00
  0.00000000D+00 -0.11161052D-06 -0.59880238D-07 -0.59880238D-07  0.00000000D+00
 -0.00000000D+00  0.00000000D+00 -0.13361755D-05 -0.18439416D-05 -0.18439416D-05
 -0.00000000D+00  0.00000000D+00 -0.00000000D+00
MO   18     MO 0.0        OCC NO =    0.0000000  ORB. ENERGY =    0.021797
  0.16245515D-04  0.24440671D-03  0.73687881D+00 -0.30125650D+00  0.30505882D-01
 -0.52300316D-02  0.98238837D-02 -0.11774255D-01  0.45892417D-03 -0.69637170D-03
 -0.57472157D-05 -0.00000000D+00  0.00000000D+00 -0.37651881D-04  0.00000000D+00
 -0.00000000D+00  0.76867566D-02 -0.00000000D+00  0.00000000D+00 -0.90547752D-02
  0.00000000D+00 -0.00000000D+00 -0.29369111D-06 -0.17918878D-06 -0.17918878D-06
 -0.00000000D+00  0.00000000D+00  0.00000000D+00 -0.31035824D-05 -0.42541579D-05
 -0.42541579D-05  0.00000000D+00 -0.00000000D+00 -0.00000000D+00 -0.16245515D-04
 -0.24440671D-03 -0.73687881D+00  0.30125650D+00 -0.30505882D-01  0.52300316D-02
 -0.98238837D-02  0.11774255D-01 -0.45892417D-03  0.69637170D-03 -0.57472157D-05
  0.00000000D+00 -0.00000000D+00 -0.37651882D-04 -0.00000000D+00  0.00000000D+00
  0.76867566D-02  0.00000000D+00 -0.00000000D+00 -0.90547752D-02 -0.00000000D+00
  0.00000000D+00  0.29369111D-06  0.17918878D-06  0.17918878D-06 -0.00000000D+00
  0.00000000D+00 -0.00000000D+00  0.31035824D-05  0.42541579D-05  0.42541579D-05
  0.00000000D+00 -0.00000000D+00  0.00000000D+00
MO   19     MO 0.0        OCC NO =    0.0000000  ORB. ENERGY =    0.026514
 -0.21168665D-02  0.51743417D-02  0.15494462D-01 -0.16272147D-01  0.85706214D-02
  0.59349301D-02  0.11468461D-02 -0.49635857D-02 -0.18607967D-02  0.36560758D-03
 -0.22292600D-06 -0.00000000D+00  0.00000000D+00 -0.18752729D-02 -0.00000000D+00
 -0.00000000D+00 -0.49391044D-04  0.00000000D+00  0.00000000D+00  0.20555105D-03
 -0.00000000D+00 -0.00000000D+00  0.75871642D-07  0.72961227D-07  0.72961227D-07
 -0.00000000D+00  0.00000000D+00 -0.00000000D+00 -0.46203008D-05  0.16233982D-05
  0.16233982D-05 -0.00000000D+00 -0.00000000D+00  0.00000000D+00 -0.21168665D-02
  0.51743417D-02  0.15494462D-01 -0.16272147D-01  0.85706214D-02  0.59349301D-02
  0.11468461D-02 -0.49635857D-02 -0.18607967D-02  0.36560758D-03  0.22292600D-06
  0.00000000D+00 -0.00000000D+00  0.18752729D-02  0.00000000D+00  0.00000000D+00
  0.49391044D-04 -0.00000000D+00 -0.00000000D+00 -0.20555105D-03  0.00000000D+00
  0.00000000D+00  0.75871642D-07  0.72961227D-07  0.72961227D-07 -0.00000000D+00
  0.00000000D+00  0.00000000D+00 -0.46203008D-05  0.16233982D-05  0.16233982D-05
 -0.00000000D+00 -0.00000000D+00 -0.00000000D+00
MO   20     MO 0.0        OCC NO =    0.0000000  ORB. ENERGY =    0.035648
  0.92450928D-04  0.21526968D-03  0.17618318D+00 -0.77238265D-01  0.29460525D-02
 -0.10733229D-01  0.14917660D-02  0.33879436D-02  0.26752314D-02 -0.69101846D-03
 -0.29946589D-04 -0.00000000D+00  0.00000000D+00 -0.32757838D-04  0.00000000D+00
 -0.00000000D+00  0.23280689D-02 -0.00000000D+00  0.00000000D+00 -0.31083693D-02
  0.00000000D+00 -0.00000000D+00 -0.13744278D-05 -0.14223512D-05 -0.14223512D-05
 -0.00000000D+00  0.00000000D+00 -0.00000000D+00 -0.12448635D-04 -0.12063618D-04
 -0.12063618D-04  0.00000000D+00 -0.00000000D+00 -0.00000000D+00 -0.92450928D-04
 -0.21526968D-03 -0.17618318D+00  0.77238265D-01 -0.29460525D-02  0.10733229D-01
 -0.14917660D-02 -0.33879436D-02 -0.26752314D-02  0.69101846D-03 -0.29946589D-04
  0.00000000D+00 -0.00000000D+00 -0.32757839D-04 -0.00000000D+00  0.00000000D+00
  0.23280689D-02  0.00000000D+00 -0.00000000D+00 -0.31083693D-02 -0.00000000D+00
  0.00000000D+00  0.13744278D-05  0.14223512D-05  0.14223512D-05 -0.00000000D+00
  0.00000000D+00  0.00000000D+00  0.12448635D-04  0.12063618D-04  0.12063618D-04
  0.00000000D+00 -0.00000000D+00  0.00000000D+00
MO   21     MO 0.0        OCC NO =    0.0000000  ORB. ENERGY =    0.037239
 -0.00000000D+00 -0.00000000D+00 -0.00000000D+00  0.00000000D+00 -0.00000000D+00
  0.00000000D+00 -0.00000000D+00 -0.00000000D+00 -0.00000000D+00  0.00000000D+00
  0.00000000D+00  0.00000000D+00 -0.00000000D+00  0.00000000D+00  0.00000000D+00
 -0.00000000D+00 -0.00000000D+00 -0.00000000D+00  0.00000000D+00  0.00000000D+00
  0.00000000D+00 -0.00000000D+00  0.00000000D+00 -0.43043412D-07  0.43043412D-07
 -0.00000000D+00  0.00000000D+00  0.15448230D-07  0.00000000D+00  0.59943522D-06
 -0.59943522D-06  0.00000000D+00 -0.00000000D+00 -0.21513660D-06 -0.00000000D+00
 -0.00000000D+00  0.00000000D+00 -0.00000000D+00  0.00000000D+00 -0.00000000D+00
  0.00000000D+00  0.00000000D+00  0.00000000D+00 -0.00000000D+00  0.00000000D+00
  0.00000000D+00 -0.00000000D+00 -0.00000000D+00  0.00000000D+00 -0.00000000D+00
 -0.00000000D+00  0.00000000D+00 -0.00000000D+00  0.00000000D+00  0.00000000D+00
  0.00000000D+00 -0.00000000D+00 -0.43043412D-07  0.43043412D-07  0.00000000D+00
 -0.00000000D+00  0.15448230D-07  0.00000000D+00  0.59943522D-06 -0.59943522D-06
 -0.00000000D+00  0.00000000D+00 -0.21513660D-06
MO   22     MO 0.0        OCC NO =    0.0000000  ORB. ENERGY =    0.037239
  0.00000000D+00  0.00000000D+00  0.00000000D+00 -0.00000000D+00  0.00000000D+00
 -0.00000000D+00  0.00000000D+00  0.00000000D+00  0.00000000D+00  0.00000000D+00
 -0.00000000D+00  0.00000000D+00  0.00000000D+00 -0.00000000D+00  0.00000000D+00
  0.00000000D+00  0.00000000D+00 -0.00000000D+00 -0.00000000D+00 -0.00000000D+00
 -0.00000000D+00  0.00000000D+00 -0.00000000D+00  0.77241148D-08 -0.77241148D-08
 -0.00000000D+00 -0.00000000D+00  0.86086824D-07 -0.00000000D+00 -0.10756830D-06
  0.10756830D-06  0.00000000D+00  0.00000000D+00 -0.11988704D-05  0.00000000D+00
  0.00000000D+00 -0.00000000D+00  0.00000000D+00 -0.00000000D+00  0.00000000D+00
  0.00000000D+00 -0.00000000D+00 -0.00000000D+00 -0.00000000D+00 -0.00000000D+00
  0.00000000D+00  0.00000000D+00  0.00000000D+00  0.00000000D+00  0.00000000D+00
  0.00000000D+00 -0.00000000D+00  0.00000000D+00 -0.00000000D+00  0.00000000D+00
 -0.00000000D+00  0.00000000D+00  0.77241148D-08 -0.77241148D-08  0.00000000D+00
  0.00000000D+00  0.86086824D-07 -0.00000000D+00 -0.10756830D-06  0.10756830D-06
 -0.00000000D+00 -0.00000000D+00 -0.11988704D-05
MO   23     MO 0.0        OCC NO =    0.0000000  ORB. ENERGY =    0.041441
 -0.00000000D+00 -0.00000000D+00  0.00000000D+00 -0.00000000D+00  0.00000000D+00
 -0.00000000D+00  0.00000000D+00  0.00000000D+00  0.00000000D+00 -0.00000000D+00
 -0.00000000D+00  0.18675890D-05  0.11188236D-06  0.00000000D+00 -0.50635221D-04
 -0.30334226D-05  0.00000000D+00  0.19623343D-03  0.11755826D-04 -0.00000000D+00
 -0.27703660D-03 -0.16596529D-04  0.00000000D+00  0.00000000D+00  0.00000000D+00
  0.87015600D-06  0.52128746D-07  0.00000000D+00  0.00000000D+00  0.00000000D+00
  0.00000000D+00 -0.41461447D-05 -0.24838457D-06 -0.00000000D+00 -0.00000000D+00
 -0.00000000D+00 -0.00000000D+00  0.00000000D+00 -0.00000000D+00  0.00000000D+00
 -0.00000000D+00 -0.00000000D+00 -0.00000000D+00  0.00000000D+00  0.00000000D+00
  0.18675890D-05  0.11188236D-06 -0.00000000D+00 -0.50635221D-04 -0.30334226D-05
  0.00000000D+00  0.19623343D-03  0.11755826D-04 -0.00000000D+00 -0.27703660D-03
 -0.16596529D-04 -0.00000000D+00 -0.00000000D+00 -0.00000000D+00 -0.87015600D-06
 -0.52128746D-07 -0.00000000D+00  0.00000000D+00 -0.00000000D+00  0.00000000D+00
  0.41461447D-05  0.24838457D-06  0.00000000D+00
MO   24     MO 0.0        OCC NO =    0.0000000  ORB. ENERGY =    0.041441
  0.00000000D+00  0.00000000D+00  0.00000000D+00 -0.00000000D+00  0.00000000D+00
 -0.00000000D+00  0.00000000D+00  0.00000000D+00  0.00000000D+00 -0.00000000D+00
  0.00000000D+00  0.11188236D-06 -0.18675890D-05 -0.00000000D+00 -0.30334226D-05
  0.50635221D-04  0.00000000D+00  0.11755826D-04 -0.19623343D-03 -0.00000000D+00
 -0.16596529D-04  0.27703660D-03  0.00000000D+00  0.00000000D+00  0.00000000D+00
  0.52128746D-07 -0.87015600D-06 -0.00000000D+00 -0.00000000D+00  0.00000000D+00
  0.00000000D+00 -0.24838457D-06  0.41461447D-05  0.00000000D+00  0.00000000D+00
  0.00000000D+00 -0.00000000D+00  0.00000000D+00 -0.00000000D+00  0.00000000D+00
 -0.00000000D+00 -0.00000000D+00 -0.00000000D+00  0.00000000D+00 -0.00000000D+00
  0.11188236D-06 -0.18675890D-05  0.00000000D+00 -0.30334226D-05  0.50635221D-04