 Molden2AIM, Version 3.1.0 (02/25/2015)           Time: Thu Oct 17 19:54:28 2024
GAUSSIAN             68 MOL ORBITALS     68 PRIMITIVES        2 NUCLEI
  Be   1    (CENTRE  1)   0.00000000  0.00000000  0.00000000  CHARGE =  4.0
  Be   2    (CENTRE  2)  33.20000000  0.00000000  0.00000000  CHARGE =  4.0
CENTRE ASSIGNMENTS    1  1  1  1  1  1  1  1  1  1  1  1  1  1  1  1  1  1  1  1
CENTRE ASSIGNMENTS    1  1  1  1  1  1  1  1  1  1  1  1  1  1  2  2  2  2  2  2
CENTRE ASSIGNMENTS    2  2  2  2  2  2  2  2  2  2  2  2  2  2  2  2  2  2  2  2
CENTRE ASSIGNMENTS    2  2  2  2  2  2  2  2
TYPE ASSIGNMENTS      1  1  1  1  1  1  1  1  1  1  2  3  4  2  3  4  2  3  4  2
TYPE ASSIGNMENTS      3  4  5  6  7  8  9 10  5  6  7  8  9 10  1  1  1  1  1  1
TYPE ASSIGNMENTS      1  1  1  1  2  3  4  2  3  4  2  3  4  2  3  4  5  6  7  8
TYPE ASSIGNMENTS      9 10  5  6  7  8  9 10
EXPONENTS  0.1000000D-03 0.3000000D-03 0.9000000D-03 0.2700000D-02 0.8100000D-02
EXPONENTS  0.2430000D-01 0.7290000D-01 0.2187000D+00 0.6561000D+00 0.1968300D+01
EXPONENTS  0.1000000D-03 0.1000000D-03 0.1000000D-03 0.3000000D-03 0.3000000D-03
EXPONENTS  0.3000000D-03 0.9000000D-03 0.9000000D-03 0.9000000D-03 0.2700000D-02
EXPONENTS  0.2700000D-02 0.2700000D-02 0.1000000D-03 0.1000000D-03 0.1000000D-03
EXPONENTS  0.1000000D-03 0.1000000D-03 0.1000000D-03 0.3000000D-03 0.3000000D-03
EXPONENTS  0.3000000D-03 0.3000000D-03 0.3000000D-03 0.3000000D-03 0.1000000D-03
EXPONENTS  0.3000000D-03 0.9000000D-03 0.2700000D-02 0.8100000D-02 0.2430000D-01
EXPONENTS  0.7290000D-01 0.2187000D+00 0.6561000D+00 0.1968300D+01 0.1000000D-03
EXPONENTS  0.1000000D-03 0.1000000D-03 0.3000000D-03 0.3000000D-03 0.3000000D-03
EXPONENTS  0.9000000D-03 0.9000000D-03 0.9000000D-03 0.2700000D-02 0.2700000D-02
EXPONENTS  0.2700000D-02 0.1000000D-03 0.1000000D-03 0.1000000D-03 0.1000000D-03
EXPONENTS  0.1000000D-03 0.1000000D-03 0.3000000D-03 0.3000000D-03 0.3000000D-03
EXPONENTS  0.3000000D-03 0.3000000D-03 0.3000000D-03
MO    1     MO 0.0        OCC NO =    1.0000000  ORB. ENERGY =   -0.003657
 -0.57730718D-04  0.11602579D-03 -0.17019376D-05  0.20131242D-02  0.51397667D-02
  0.81841754D-02  0.11795732D-01 -0.21675424D-01 -0.33473943D-02  0.98869196D-04
  0.42067426D-05  0.00000000D+00 -0.00000000D+00 -0.57058689D-05 -0.00000000D+00
  0.00000000D+00  0.12408009D-04 -0.00000000D+00  0.00000000D+00 -0.15504097D-04
  0.00000000D+00 -0.00000000D+00  0.13874522D-07 -0.42197345D-09 -0.42197345D-09
  0.00000000D+00 -0.00000000D+00 -0.00000000D+00 -0.59534758D-07 -0.11861436D-07
 -0.11861436D-07 -0.00000000D+00  0.00000000D+00  0.00000000D+00 -0.57730718D-04
  0.11602579D-03 -0.17019376D-05  0.20131242D-02  0.51397667D-02  0.81841754D-02
  0.11795732D-01 -0.21675424D-01 -0.33473943D-02  0.98869196D-04 -0.42067426D-05
 -0.00000000D+00  0.00000000D+00  0.57058689D-05  0.00000000D+00 -0.00000000D+00
 -0.12408009D-04 -0.00000000D+00  0.00000000D+00  0.15504097D-04  0.00000000D+00
 -0.00000000D+00  0.13874522D-07 -0.42197345D-09 -0.42197345D-09  0.00000000D+00
 -0.00000000D+00  0.00000000D+00 -0.59534758D-07 -0.11861436D-07 -0.11861436D-07
 -0.00000000D+00  0.00000000D+00 -0.00000000D+00
MO    2     MO 0.0        OCC NO =    0.0000000  ORB. ENERGY =   -0.003082
 -0.16709736D-05 -0.14030242D-04 -0.18237504D-03 -0.26366386D-02 -0.51288170D-02
 -0.90759278D-02 -0.12155700D-01  0.22695008D-01  0.36614178D-02 -0.15396497D-03
  0.17376116D-06 -0.00000000D+00 -0.00000000D+00  0.12097265D-05  0.00000000D+00
  0.00000000D+00 -0.18382142D-04  0.00000000D+00 -0.00000000D+00  0.67058279D-05
 -0.00000000D+00  0.00000000D+00  0.31276253D-08  0.15924040D-08  0.15924040D-08
 -0.00000000D+00 -0.00000000D+00 -0.00000000D+00  0.36423981D-07  0.46942187D-07
  0.46942187D-07  0.00000000D+00  0.00000000D+00  0.00000000D+00  0.16709736D-05
  0.14030242D-04  0.18237504D-03  0.26366386D-02  0.51288170D-02  0.90759278D-02
  0.12155700D-01 -0.22695008D-01 -0.36614178D-02  0.15396497D-03  0.17376116D-06
  0.00000000D+00  0.00000000D+00  0.12097265D-05 -0.00000000D+00 -0.00000000D+00
 -0.18382142D-04  0.00000000D+00  0.00000000D+00  0.67058279D-05 -0.00000000D+00
 -0.00000000D+00 -0.31276253D-08 -0.15924040D-08 -0.15924040D-08 -0.00000000D+00
 -0.00000000D+00 -0.00000000D+00 -0.36423981D-07 -0.46942187D-07 -0.46942187D-07
  0.00000000D+00  0.00000000D+00  0.00000000D+00
MO    3     MO 0.0        OCC NO =    0.0000000  ORB. ENERGY =    0.004114
 -0.52788203D-03 -0.23099765D-04  0.39956713D-02 -0.65829850D-02 -0.67816868D-03
 -0.49192592D-02 -0.35664285D-02  0.78406846D-02  0.17499793D-02 -0.20698813D-03
  0.24727835D-04  0.00000000D+00 -0.00000000D+00 -0.30643425D-04 -0.00000000D+00
 -0.00000000D+00  0.10967161D-03  0.00000000D+00  0.00000000D+00 -0.44136677D-04
 -0.00000000D+00 -0.00000000D+00  0.87017682D-07  0.38897451D-08  0.38897451D-08
  0.00000000D+00 -0.00000000D+00  0.00000000D+00 -0.13442170D-06  0.94094922D-07
  0.94094922D-07 -0.00000000D+00 -0.00000000D+00  0.00000000D+00 -0.52788203D-03
 -0.23099765D-04  0.39956713D-02 -0.65829850D-02 -0.67816868D-03 -0.49192592D-02
 -0.35664285D-02  0.78406846D-02  0.17499793D-02 -0.20698813D-03 -0.24727835D-04
 -0.00000000D+00  0.00000000D+00  0.30643425D-04  0.00000000D+00  0.00000000D+00
 -0.10967161D-03 -0.00000000D+00  0.00000000D+00  0.44136677D-04  0.00000000D+00
 -0.00000000D+00  0.87017682D-07  0.38897451D-08  0.38897451D-08  0.00000000D+00
 -0.00000000D+00 -0.00000000D+00 -0.13442170D-06  0.94094922D-07  0.94094922D-07
 -0.00000000D+00 -0.00000000D+00  0.00000000D+00
MO    4     MO 0.0        OCC NO =    0.0000000  ORB. ENERGY =    0.005298
  0.00000000D+00  0.00000000D+00  0.00000000D+00  0.00000000D+00  0.00000000D+00
 -0.00000000D+00 -0.00000000D+00  0.00000000D+00 -0.00000000D+00  0.00000000D+00
 -0.00000000D+00  0.12271904D-06  0.36248528D-06 -0.00000000D+00 -0.16033854D-05
 -0.47360532D-05  0.00000000D+00  0.23118899D-04  0.68288229D-04 -0.00000000D+00
  0.10162212D-03  0.30016973D-03 -0.00000000D+00 -0.00000000D+00 -0.00000000D+00
  0.10654662D-09  0.31471648D-09 -0.00000000D+00 -0.00000000D+00  0.00000000D+00
  0.00000000D+00  0.15989138D-07  0.47228459D-07 -0.00000000D+00  0.00000000D+00
  0.00000000D+00 -0.00000000D+00 -0.00000000D+00  0.00000000D+00  0.00000000D+00
 -0.00000000D+00  0.00000000D+00 -0.00000000D+00 -0.00000000D+00  0.00000000D+00
  0.12271904D-06  0.36248528D-06  0.00000000D+00 -0.16033854D-05 -0.47360532D-05
  0.00000000D+00  0.23118899D-04  0.68288229D-04  0.00000000D+00  0.10162212D-03
  0.30016973D-03 -0.00000000D+00  0.00000000D+00  0.00000000D+00 -0.10654662D-09
 -0.31471648D-09  0.00000000D+00 -0.00000000D+00 -0.00000000D+00 -0.00000000D+00
 -0.15989138D-07 -0.47228459D-07  0.00000000D+00
MO    5     MO 0.0        OCC NO =    0.0000000  ORB. ENERGY =    0.005298
  0.00000000D+00  0.00000000D+00  0.00000000D+00  0.00000000D+00 -0.00000000D+00
  0.00000000D+00 -0.00000000D+00 -0.00000000D+00  0.00000000D+00 -0.00000000D+00
 -0.00000000D+00 -0.36248528D-06  0.12271904D-06  0.00000000D+00  0.47360532D-05
 -0.16033854D-05  0.00000000D+00 -0.68288229D-04  0.23118899D-04 -0.00000000D+00
 -0.30016973D-03  0.10162212D-03 -0.00000000D+00 -0.00000000D+00 -0.00000000D+00
 -0.31471648D-09  0.10654662D-09  0.00000000D+00 -0.00000000D+00 -0.00000000D+00
 -0.00000000D+00 -0.47228459D-07  0.15989138D-07 -0.00000000D+00  0.00000000D+00
  0.00000000D+00 -0.00000000D+00 -0.00000000D+00  0.00000000D+00 -0.00000000D+00
  0.00000000D+00 -0.00000000D+00  0.00000000D+00  0.00000000D+00  0.00000000D+00
 -0.36248528D-06  0.12271904D-06 -0.00000000D+00  0.47360532D-05 -0.16033854D-05
  0.00000000D+00 -0.68288229D-04  0.23118899D-04  0.00000000D+00 -0.30016973D-03
  0.10162212D-03 -0.00000000D+00  0.00000000D+00  0.00000000D+00  0.31471648D-09
 -0.10654662D-09 -0.00000000D+00  0.00000000D+00  0.00000000D+00  0.00000000D+00
  0.47228459D-07 -0.15989138D-07  0.00000000D+00
MO    6     MO 0.0        OCC NO =    0.0000000  ORB. ENERGY =    0.007796
  0.00000000D+00 -0.00000000D+00 -0.00000000D+00  0.00000000D+00  0.00000000D+00
  0.00000000D+00  0.00000000D+00 -0.00000000D+00  0.00000000D+00 -0.00000000D+00
  0.00000000D+00 -0.16678278D-04 -0.69015447D-06 -0.00000000D+00  0.11506710D-04
  0.47615288D-06  0.00000000D+00 -0.40966349D-04 -0.16952050D-05 -0.00000000D+00
 -0.63208184D-03 -0.26155823D-04 -0.00000000D+00 -0.00000000D+00 -0.00000000D+00
 -0.54533856D-07 -0.22566365D-08  0.00000000D+00 -0.00000000D+00 -0.00000000D+00
 -0.00000000D+00  0.68186800D-07  0.28216091D-08 -0.00000000D+00 -0.00000000D+00
  0.00000000D+00  0.00000000D+00 -0.00000000D+00  0.00000000D+00 -0.00000000D+00
 -0.00000000D+00  0.00000000D+00 -0.00000000D+00  0.00000000D+00  0.00000000D+00
  0.16678278D-04  0.69015447D-06 -0.00000000D+00 -0.11506710D-04 -0.47615288D-06
 -0.00000000D+00  0.40966349D-04  0.16952050D-05  0.00000000D+00  0.63208184D-03
  0.26155823D-04 -0.00000000D+00  0.00000000D+00  0.00000000D+00 -0.54533856D-07
 -0.22566365D-08 -0.00000000D+00  0.00000000D+00  0.00000000D+00  0.00000000D+00
  0.68186800D-07  0.28216091D-08  0.00000000D+00
MO    7     MO 0.0        OCC NO =    0.0000000  ORB. ENERGY =    0.007796
 -0.00000000D+00  0.00000000D+00 -0.00000000D+00  0.00000000D+00  0.00000000D+00
 -0.00000000D+00 -0.00000000D+00  0.00000000D+00 -0.00000000D+00  0.00000000D+00
 -0.00000000D+00  0.69015447D-06 -0.16678278D-04  0.00000000D+00 -0.47615288D-06
  0.11506710D-04 -0.00000000D+00  0.16952050D-05 -0.40966349D-04 -0.00000000D+00
  0.26155823D-04 -0.63208184D-03 -0.00000000D+00  0.00000000D+00  0.00000000D+00
  0.22566365D-08 -0.54533856D-07 -0.00000000D+00  0.00000000D+00 -0.00000000D+00
 -0.00000000D+00 -0.28216091D-08  0.68186800D-07  0.00000000D+00  0.00000000D+00
 -0.00000000D+00  0.00000000D+00 -0.00000000D+00 -0.00000000D+00 -0.00000000D+00
  0.00000000D+00 -0.00000000D+00  0.00000000D+00 -0.00000000D+00 -0.00000000D+00
 -0.69015447D-06  0.16678278D-04  0.00000000D+00  0.47615288D-06 -0.11506710D-04
 -0.00000000D+00 -0.16952050D-05  0.40966349D-04  0.00000000D+00 -0.26155823D-04
  0.63208184D-03  0.00000000D+00 -0.00000000D+00 -0.00000000D+00  0.22566365D-08
 -0.54533856D-07  0.00000000D+00 -0.00000000D+00 -0.00000000D+00 -0.00000000D+00
 -0.28216091D-08  0.68186800D-07 -0.00000000D+00
MO    8     MO 0.0        OCC NO =    0.0000000  ORB. ENERGY =    0.008564
  0.16226251D-04 -0.14103415D-04 -0.12269711D-01 -0.11850295D-02  0.10514555D-01
  0.88669434D-03  0.80646680D-02 -0.12175298D-01 -0.89994943D-03 -0.27385630D-03
 -0.17846313D-05  0.00000000D+00 -0.00000000D+00  0.18013227D-05 -0.00000000D+00
  0.00000000D+00 -0.27217335D-03 -0.00000000D+00 -0.00000000D+00 -0.18110784D-03
 -0.00000000D+00  0.00000000D+00 -0.16176539D-07 -0.30835527D-07 -0.30835527D-07
  0.00000000D+00 -0.00000000D+00  0.00000000D+00 -0.29388370D-06 -0.11896911D-06
 -0.11896911D-06 -0.00000000D+00  0.00000000D+00 -0.00000000D+00 -0.16226251D-04
  0.14103415D-04  0.12269711D-01  0.11850295D-02 -0.10514555D-01 -0.88669434D-03
 -0.80646680D-02  0.12175298D-01  0.89994943D-03  0.27385630D-03 -0.17846313D-05
 -0.00000000D+00  0.00000000D+00  0.18013227D-05  0.00000000D+00 -0.00000000D+00
 -0.27217335D-03 -0.00000000D+00  0.00000000D+00 -0.18110784D-03 -0.00000000D+00
 -0.00000000D+00  0.16176539D-07  0.30835527D-07  0.30835527D-07  0.00000000D+00
 -0.00000000D+00 -0.00000000D+00  0.29388370D-06  0.11896911D-06  0.11896911D-06
  0.00000000D+00  0.00000000D+00 -0.00000000D+00
MO    9     MO 0.0        OCC NO =    0.0000000  ORB. ENERGY =    0.008998
  0.19184287D-03 -0.35756322D-03 -0.99961245D-03  0.34899784D-02 -0.44990786D-02
  0.18936998D-02 -0.27357472D-02  0.29610263D-02 -0.33411492D-03  0.24616630D-03
 -0.16066432D-04  0.00000000D+00 -0.00000000D+00  0.18227093D-04  0.00000000D+00
 -0.00000000D+00 -0.68859837D-04 -0.00000000D+00  0.00000000D+00  0.60874979D-03
 -0.00000000D+00  0.00000000D+00 -0.51764525D-07  0.26053427D-08  0.26053427D-08
  0.00000000D+00 -0.00000000D+00 -0.00000000D+00  0.19813328D-06  0.59165245D-07
  0.59165245D-07  0.00000000D+00 -0.00000000D+00  0.00000000D+00  0.19184287D-03
 -0.35756322D-03 -0.99961245D-03  0.34899784D-02 -0.44990786D-02  0.18936998D-02
 -0.27357472D-02  0.29610263D-02 -0.33411492D-03  0.24616630D-03  0.16066432D-04
 -0.00000000D+00  0.00000000D+00 -0.18227093D-04 -0.00000000D+00  0.00000000D+00
  0.68859837D-04  0.00000000D+00 -0.00000000D+00 -0.60874979D-03  0.00000000D+00
  0.00000000D+00 -0.51764525D-07  0.26053427D-08  0.26053427D-08 -0.00000000D+00
 -0.00000000D+00  0.00000000D+00  0.19813328D-06  0.59165245D-07  0.59165245D-07
  0.00000000D+00 -0.00000000D+00 -0.00000000D+00
MO   10     MO 0.0        OCC NO =    0.0000000  ORB. ENERGY =    0.012372
 -0.00000000D+00  0.00000000D+00  0.00000000D+00 -0.00000000D+00  0.00000000D+00
 -0.00000000D+00  0.00000000D+00 -0.00000000D+00 -0.00000000D+00 -0.00000000D+00
  0.00000000D+00 -0.56909004D-06  0.70620702D-06 -0.00000000D+00  0.76854494D-05
 -0.95371885D-05  0.00000000D+00 -0.13254653D-03  0.16448241D-03 -0.00000000D+00
  0.51229608D-03 -0.63572918D-03  0.00000000D+00 -0.00000000D+00 -0.00000000D+00
 -0.65705458D-09  0.81536642D-09  0.00000000D+00 -0.00000000D+00 -0.00000000D+00
 -0.00000000D+00 -0.71413212D-07  0.88619584D-07 -0.00000000D+00 -0.00000000D+00
  0.00000000D+00  0.00000000D+00 -0.00000000D+00  0.00000000D+00 -0.00000000D+00
  0.00000000D+00 -0.00000000D+00 -0.00000000D+00 -0.00000000D+00 -0.00000000D+00
 -0.56909004D-06  0.70620702D-06  0.00000000D+00  0.76854494D-05 -0.95371885D-05
 -0.00000000D+00 -0.13254653D-03  0.16448241D-03  0.00000000D+00  0.51229608D-03
 -0.63572918D-03  0.00000000D+00 -0.00000000D+00 -0.00000000D+00  0.65705458D-09
 -0.81536642D-09 -0.00000000D+00 -0.00000000D+00 -0.00000000D+00 -0.00000000D+00
  0.71413212D-07 -0.88619584D-07  0.00000000D+00
MO   11     MO 0.0        OCC NO =    0.0000000  ORB. ENERGY =    0.012372
 -0.00000000D+00  0.00000000D+00  0.00000000D+00 -0.00000000D+00  0.00000000D+00
 -0.00000000D+00  0.00000000D+00 -0.00000000D+00 -0.00000000D+00 -0.00000000D+00
  0.00000000D+00 -0.70620702D-06 -0.56909004D-06 -0.00000000D+00  0.95371885D-05
  0.76854494D-05  0.00000000D+00 -0.16448241D-03 -0.13254653D-03  0.00000000D+00
  0.63572918D-03  0.51229608D-03  0.00000000D+00 -0.00000000D+00 -0.00000000D+00
 -0.81536642D-09 -0.65705458D-09 -0.00000000D+00 -0.00000000D+00 -0.00000000D+00
 -0.00000000D+00 -0.88619584D-07 -0.71413212D-07  0.00000000D+00 -0.00000000D+00
  0.00000000D+00 -0.00000000D+00 -0.00000000D+00  0.00000000D+00 -0.00000000D+00
  0.00000000D+00 -0.00000000D+00  0.00000000D+00 -0.00000000D+00 -0.00000000D+00
 -0.70620702D-06 -0.56909004D-06  0.00000000D+00  0.95371885D-05  0.76854494D-05
 -0.00000000D+00 -0.16448241D-03 -0.13254653D-03  0.00000000D+00  0.63572918D-03
  0.51229608D-03  0.00000000D+00 -0.00000000D+00 -0.00000000D+00  0.81536642D-09
  0.65705458D-09  0.00000000D+00 -0.00000000D+00 -0.00000000D+00 -0.00000000D+00
  0.88619584D-07  0.71413212D-07 -0.00000000D+00
MO   12     MO 0.0        OCC NO =    0.0000000  ORB. ENERGY =    0.012389
  0.26360531D-03 -0.54732094D-03 -0.11187282D-02  0.14230339D-01 -0.20148001D-01
  0.88378304D-03 -0.12119489D-01  0.17112125D-01  0.73615741D-03  0.56000612D-03
 -0.25978844D-04  0.00000000D+00 -0.00000000D+00  0.19361978D-04  0.00000000D+00
  0.00000000D+00 -0.11310430D-03 -0.00000000D+00  0.00000000D+00  0.17076417D-04
  0.00000000D+00 -0.00000000D+00 -0.81587536D-07  0.55991199D-08  0.55991199D-08
  0.00000000D+00 -0.00000000D+00 -0.00000000D+00  0.24872527D-06  0.13671501D-06
  0.13671501D-06 -0.00000000D+00  0.00000000D+00 -0.00000000D+00  0.26360531D-03
 -0.54732094D-03 -0.11187282D-02  0.14230339D-01 -0.20148001D-01  0.88378304D-03
 -0.12119489D-01  0.17112125D-01  0.73615741D-03  0.56000612D-03  0.25978844D-04
 -0.00000000D+00  0.00000000D+00 -0.19361978D-04  0.00000000D+00 -0.00000000D+00
  0.11310430D-03 -0.00000000D+00  0.00000000D+00 -0.17076417D-04  0.00000000D+00
 -0.00000000D+00 -0.81587536D-07  0.55991199D-08  0.55991199D-08  0.00000000D+00
 -0.00000000D+00  0.00000000D+00  0.24872527D-06  0.13671501D-06  0.13671501D-06
  0.00000000D+00  0.00000000D+00 -0.00000000D+00
MO   13     MO 0.0        OCC NO =    0.0000000  ORB. ENERGY =    0.012837
 -0.12470421D-04 -0.10177853D-04  0.74250207D-02 -0.98027994D-03  0.29153160D-03
  0.33887202D-02  0.10550725D-02 -0.32971396D-02 -0.10474116D-02  0.18517248D-03
  0.13556425D-05 -0.00000000D+00  0.00000000D+00  0.50180119D-06  0.00000000D+00
 -0.00000000D+00  0.14534437D-03  0.00000000D+00  0.00000000D+00  0.10580389D-02
 -0.00000000D+00 -0.00000000D+00  0.14789228D-07  0.21504019D-07  0.21504019D-07
 -0.00000000D+00  0.00000000D+00 -0.00000000D+00  0.23089225D-06  0.14000579D-06
  0.14000579D-06 -0.00000000D+00 -0.00000000D+00  0.00000000D+00  0.12470421D-04
  0.10177853D-04 -0.74250207D-02  0.98027994D-03 -0.29153160D-03 -0.33887202D-02
 -0.10550725D-02  0.32971396D-02  0.10474116D-02 -0.18517248D-03  0.13556425D-05
  0.00000000D+00 -0.00000000D+00  0.50180119D-06 -0.00000000D+00  0.00000000D+00
  0.14534437D-03  0.00000000D+00 -0.00000000D+00  0.10580389D-02 -0.00000000D+00
  0.00000000D+00 -0.14789228D-07 -0.21504019D-07 -0.21504019D-07 -0.00000000D+00
  0.00000000D+00 -0.00000000D+00 -0.23089225D-06 -0.14000579D-06 -0.14000579D-06
  0.00000000D+00 -0.00000000D+00  0.00000000D+00
MO   14     MO 0.0        OCC NO =    0.0000000  ORB. ENERGY =    0.017604
  0.76463889D-05 -0.57862559D-04 -0.18983692D-01  0.25535872D-01 -0.26228000D-01
  0.45820286D-02 -0.11878550D-01  0.14910936D-01 -0.22071006D-03  0.76977746D-03
 -0.88262657D-06 -0.00000000D+00 -0.00000000D+00  0.34428670D-05  0.00000000D+00
  0.00000000D+00 -0.42643283D-03 -0.00000000D+00 -0.00000000D+00  0.42002677D-03
  0.00000000D+00  0.00000000D+00 -0.12842971D-08 -0.19876805D-07 -0.19876805D-07
 -0.00000000D+00 -0.00000000D+00  0.00000000D+00 -0.16126182D-06  0.42794199D-07
  0.42794199D-07  0.00000000D+00  0.00000000D+00  0.00000000D+00 -0.76463889D-05
  0.57862559D-04  0.18983692D-01 -0.25535872D-01  0.26228000D-01 -0.45820286D-02
  0.11878550D-01 -0.14910936D-01  0.22071006D-03 -0.76977746D-03 -0.88262657D-06
  0.00000000D+00  0.00000000D+00  0.34428670D-05 -0.00000000D+00 -0.00000000D+00
 -0.42643283D-03  0.00000000D+00  0.00000000D+00  0.42002677D-03 -0.00000000D+00
 -0.00000000D+00  0.12842971D-08  0.19876805D-07  0.19876805D-07 -0.00000000D+00
 -0.00000000D+00 -0.00000000D+00  0.16126182D-06 -0.42794199D-07 -0.42794199D-07
  0.00000000D+00  0.00000000D+00  0.00000000D+00
MO   15     MO 0.0        OCC NO =    0.0000000  ORB. ENERGY =    0.018400
 -0.00000000D+00  0.00000000D+00  0.00000000D+00 -0.00000000D+00  0.00000000D+00
 -0.00000000D+00  0.00000000D+00 -0.00000000D+00 -0.00000000D+00 -0.00000000D+00
 -0.00000000D+00 -0.10146182D-03 -0.10281823D-03  0.00000000D+00  0.86636451D-04
  0.87794664D-04  0.00000000D+00 -0.29037848D-03 -0.29426045D-03 -0.00000000D+00
  0.54460773D-03  0.55188842D-03 -0.00000000D+00  0.00000000D+00  0.00000000D+00
 -0.33372720D-06 -0.33818869D-06  0.00000000D+00  0.00000000D+00  0.00000000D+00
  0.00000000D+00  0.61077634D-06  0.61894161D-06 -0.00000000D+00  0.00000000D+00
 -0.00000000D+00 -0.00000000D+00  0.00000000D+00 -0.00000000D+00  0.00000000D+00
 -0.00000000D+00  0.00000000D+00 -0.00000000D+00  0.00000000D+00  0.00000000D+00
  0.10146182D-03  0.10281823D-03  0.00000000D+00 -0.86636451D-04 -0.87794664D-04
  0.00000000D+00  0.29037848D-03  0.29426045D-03 -0.00000000D+00 -0.54460773D-03
 -0.55188842D-03 -0.00000000D+00  0.00000000D+00 -0.00000000D+00 -0.33372720D-06
 -0.33818869D-06 -0.00000000D+00 -0.00000000D+00  0.00000000D+00  0.00000000D+00
  0.61077634D-06  0.61894161D-06 -0.00000000D+00
MO   16     MO 0.0        OCC NO =    0.0000000  ORB. ENERGY =    0.018400
  0.00000000D+00 -0.00000000D+00  0.00000000D+00 -0.00000000D+00  0.00000000D+00
 -0.00000000D+00  0.00000000D+00 -0.00000000D+00 -0.00000000D+00 -0.00000000D+00
  0.00000000D+00 -0.10281823D-03  0.10146182D-03 -0.00000000D+00  0.87794664D-04
 -0.86636451D-04  0.00000000D+00 -0.29426045D-03  0.29037848D-03 -0.00000000D+00
  0.55188842D-03 -0.54460773D-03 -0.00000000D+00 -0.00000000D+00 -0.00000000D+00
 -0.33818869D-06  0.33372720D-06  0.00000000D+00 -0.00000000D+00 -0.00000000D+00
 -0.00000000D+00  0.61894161D-06 -0.61077634D-06 -0.00000000D+00 -0.00000000D+00
  0.00000000D+00 -0.00000000D+00  0.00000000D+00 -0.00000000D+00 -0.00000000D+00
 -0.00000000D+00  0.00000000D+00  0.00000000D+00 -0.00000000D+00  0.00000000D+00
  0.10281823D-03 -0.10146182D-03 -0.00000000D+00 -0.87794664D-04  0.86636451D-04
  0.00000000D+00  0.29426045D-03 -0.29037848D-03 -0.00000000D+00 -0.55188842D-03
  0.54460773D-03 -0.00000000D+00  0.00000000D+00  0.00000000D+00 -0.33818869D-06
  0.33372720D-06 -0.00000000D+00  0.00000000D+00  0.00000000D+00  0.00000000D+00
  0.61894161D-06 -0.61077634D-06  0.00000000D+00
MO   17     MO 0.0        OCC NO =    0.0000000  ORB. ENERGY =    0.022186
  0.12354288D-02 -0.27711455D-02  0.66052430D-02 -0.10124269D-01  0.88105110D-02
  0.12966223D-02  0.36185452D-02 -0.59161972D-02 -0.68154103D-03 -0.59169921D-04
 -0.91741270D-04 -0.00000000D+00 -0.00000000D+00  0.98934455D-04  0.00000000D+00
  0.00000000D+00 -0.29214526D-03  0.00000000D+00  0.00000000D+00  0.55465014D-03
 -0.00000000D+00 -0.00000000D+00 -0.30175118D-06  0.95531004D-08  0.95531004D-08
 -0.00000000D+00 -0.00000000D+00  0.00000000D+00  0.11108946D-05  0.33842932D-06
  0.33842932D-06  0.00000000D+00  0.00000000D+00 -0.00000000D+00  0.12354288D-02
 -0.27711455D-02  0.66052430D-02 -0.10124269D-01  0.88105110D-02  0.12966223D-02
  0.36185452D-02 -0.59161972D-02 -0.68154103D-03 -0.59169921D-04  0.91741270D-04
  0.00000000D+00  0.00000000D+00 -0.98934455D-04 -0.00000000D+00 -0.00000000D+00
  0.29214526D-03 -0.00000000D+00 -0.00000000D+00 -0.55465014D-03  0.00000000D+00
  0.00000000D+00 -0.30175118D-06  0.95531004D-08  0.95531004D-08 -0.00000000D+00
 -0.00000000D+00 -0.00000000D+00  0.11108946D-05  0.33842932D-06  0.33842932D-06
  0.00000000D+00  0.00000000D+00 -0.00000000D+00
MO   18     MO 0.0        OCC NO =    0.0000000  ORB. ENERGY =    0.025071
 -0.51016013D-04 -0.52435487D-03 -0.15302059D-01  0.28613461D-02 -0.21972574D-02
  0.23355358D-02 -0.60846198D-03 -0.26568822D-03 -0.54883443D-03  0.16345158D-03
  0.52651343D-05 -0.00000000D+00 -0.00000000D+00  0.43953974D-04  0.00000000D+00
  0.00000000D+00 -0.97954967D-03 -0.00000000D+00 -0.00000000D+00  0.89384525D-03
 -0.00000000D+00 -0.00000000D+00  0.10179183D-06  0.47535823D-07  0.47535823D-07
 -0.00000000D+00 -0.00000000D+00 -0.00000000D+00  0.11647225D-05  0.15168901D-05
  0.15168901D-05  0.00000000D+00  0.00000000D+00  0.00000000D+00  0.51016013D-04
  0.52435487D-03  0.15302059D-01 -0.28613461D-02  0.21972574D-02 -0.23355358D-02
  0.60846198D-03  0.26568822D-03  0.54883443D-03 -0.16345158D-03  0.52651343D-05
  0.00000000D+00  0.00000000D+00  0.43953974D-04 -0.00000000D+00 -0.00000000D+00
 -0.97954967D-03  0.00000000D+00  0.00000000D+00  0.89384525D-03  0.00000000D+00
 -0.00000000D+00 -0.10179183D-06 -0.47535823D-07 -0.47535823D-07 -0.00000000D+00
 -0.00000000D+00  0.00000000D+00 -0.11647225D-05 -0.15168901D-05 -0.15168901D-05
  0.00000000D+00  0.00000000D+00 -0.00000000D+00
MO   19     MO 0.0        OCC NO =    0.0000000  ORB. ENERGY =    0.028858
 -0.36175030D-02 -0.34770078D-02  0.17651125D-01 -0.17882517D-01  0.82550985D-02
  0.57928433D-02  0.18552279D-02 -0.57201431D-02 -0.18282098D-02  0.31574662D-03
  0.68079690D-04  0.00000000D+00  0.00000000D+00 -0.14889774D-03 -0.00000000D+00
 -0.00000000D+00  0.48811225D-04  0.00000000D+00  0.00000000D+00 -0.10795657D-03
 -0.00000000D+00 -0.00000000D+00  0.31900523D-06  0.85442691D-07  0.85442691D-07
  0.00000000D+00  0.00000000D+00 -0.00000000D+00  0.48580407D-06  0.18514450D-05
  0.18514450D-05 -0.00000000D+00 -0.00000000D+00  0.00000000D+00 -0.36175030D-02
 -0.34770078D-02  0.17651125D-01 -0.17882517D-01  0.82550985D-02  0.57928433D-02
  0.18552279D-02 -0.57201431D-02 -0.18282098D-02  0.31574662D-03 -0.68079690D-04
 -0.00000000D+00 -0.00000000D+00  0.14889774D-03  0.00000000D+00  0.00000000D+00
 -0.48811225D-04 -0.00000000D+00 -0.00000000D+00  0.10795657D-03  0.00000000D+00
  0.00000000D+00  0.31900523D-06  0.85442691D-07  0.85442691D-07  0.00000000D+00
  0.00000000D+00  0.00000000D+00  0.48580407D-06  0.18514450D-05  0.18514450D-05
 -0.00000000D+00 -0.00000000D+00 -0.00000000D+00
MO   20     MO 0.0        OCC NO =    0.0000000  ORB. ENERGY =    0.038167
 -0.35783189D-03 -0.60832528D-03  0.15968784D-01 -0.10350335D-01 -0.55307329D-03
  0.13633799D-01 -0.18624472D-02 -0.39356830D-02 -0.32892190D-02  0.85875737D-03
  0.37241466D-04  0.00000000D+00 -0.00000000D+00  0.21895430D-04 -0.00000000D+00
  0.00000000D+00 -0.22454884D-03  0.00000000D+00 -0.00000000D+00  0.24654762D-03
 -0.00000000D+00  0.00000000D+00  0.63983173D-06  0.62271013D-06  0.62271013D-06
  0.00000000D+00 -0.00000000D+00 -0.00000000D+00  0.50193691D-05  0.47776660D-05
  0.47776660D-05 -0.00000000D+00  0.00000000D+00 -0.00000000D+00  0.35783189D-03
  0.60832528D-03 -0.15968784D-01  0.10350335D-01  0.55307329D-03 -0.13633799D-01
  0.18624472D-02  0.39356830D-02  0.32892190D-02 -0.85875737D-03  0.37241466D-04
 -0.00000000D+00  0.00000000D+00  0.21895430D-04  0.00000000D+00 -0.00000000D+00
 -0.22454884D-03 -0.00000000D+00  0.00000000D+00  0.24654762D-03  0.00000000D+00
 -0.00000000D+00 -0.63983173D-06 -0.62271013D-06 -0.62271013D-06  0.00000000D+00
 -0.00000000D+00  0.00000000D+00 -0.50193691D-05 -0.47776660D-05 -0.47776660D-05
 -0.00000000D+00  0.00000000D+00 -0.00000000D+00
MO   21     MO 0.0        OCC NO =    0.0000000  ORB. ENERGY =    0.039367
  0.00000000D+00 -0.00000000D+00  0.00000000D+00 -0.00000000D+00  0.00000000D+00
  0.00000000D+00  0.00000000D+00 -0.00000000D+00 -0.00000000D+00  0.00000000D+00
 -0.00000000D+00  0.00000000D+00 -0.00000000D+00  0.00000000D+00 -0.00000000D+00
  0.00000000D+00 -0.00000000D+00  0.00000000D+00 -0.00000000D+00  0.00000000D+00
 -0.00000000D+00  0.00000000D+00 -0.00000000D+00  0.45921190D-07 -0.45921190D-07
  0.00000000D+00 -0.00000000D+00 -0.20362417D-07  0.00000000D+00 -0.62174510D-06
  0.62174510D-06 -0.00000000D+00  0.00000000D+00  0.27569483D-06  0.00000000D+00
 -0.00000000D+00 -0.00000000D+00  0.00000000D+00  0.00000000D+00 -0.00000000D+00
  0.00000000D+00  0.00000000D+00  0.00000000D+00 -0.00000000D+00  0.00000000D+00
 -0.00000000D+00  0.00000000D+00 -0.00000000D+00  0.00000000D+00 -0.00000000D+00
 -0.00000000D+00 -0.00000000D+00  0.00000000D+00  0.00000000D+00  0.00000000D+00
 -0.00000000D+00 -0.00000000D+00  0.45921190D-07 -0.45921190D-07  0.00000000D+00
 -0.00000000D+00 -0.20362417D-07 -0.00000000D+00 -0.62174510D-06  0.62174510D-06
 -0.00000000D+00  0.00000000D+00  0.27569483D-06
MO   22     MO 0.0        OCC NO =    0.0000000  ORB. ENERGY =    0.039367
  0.00000000D+00 -0.00000000D+00  0.00000000D+00 -0.00000000D+00 -0.00000000D+00
  0.00000000D+00 -0.00000000D+00 -0.00000000D+00 -0.00000000D+00  0.00000000D+00
 -0.00000000D+00  0.00000000D+00 -0.00000000D+00  0.00000000D+00 -0.00000000D+00
  0.00000000D+00 -0.00000000D+00  0.00000000D+00 -0.00000000D+00  0.00000000D+00
 -0.00000000D+00  0.00000000D+00 -0.00000000D+00 -0.10181209D-07  0.10181209D-07
  0.00000000D+00 -0.00000000D+00 -0.91842377D-07  0.00000000D+00  0.13784741D-06
 -0.13784741D-06 -0.00000000D+00  0.00000000D+00  0.12434902D-05  0.00000000D+00
  0.00000000D+00 -0.00000000D+00  0.00000000D+00 -0.00000000D+00 -0.00000000D+00
 -0.00000000D+00  0.00000000D+00  0.00000000D+00 -0.00000000D+00  0.00000000D+00
 -0.00000000D+00  0.00000000D+00  0.00000000D+00  0.00000000D+00 -0.00000000D+00
 -0.00000000D+00 -0.00000000D+00  0.00000000D+00  0.00000000D+00  0.00000000D+00
 -0.00000000D+00 -0.00000000D+00 -0.10181209D-07  0.10181209D-07  0.00000000D+00
 -0.00000000D+00 -0.91842377D-07 -0.00000000D+00  0.13784741D-06 -0.13784741D-06
 -0.00000000D+00  0.00000000D+00  0.12434902D-05
MO   23     MO 0.0        OCC NO =    0.0000000  ORB. ENERGY =    0.042461
 -0.21417268D-03  0.82489885D-03 -0.22771210D-02  0.19706147D-02  0.44596092D-02
 -0.11674141D-01  0.25556415D-02  0.18442387D-02  0.26068258D-02 -0.73822649D-03
  0.20546695D-04  0.00000000D+00 -0.00000000D+00 -0.10046364D-03 -0.00000000D+00
  0.00000000D+00  0.12721903D-03  0.00000000D+00 -0.00000000D+00 -0.14433156D-03
 -0.00000000D+00  0.00000000D+00  0.58683354D-06  0.54672517D-06  0.54672517D-06
  0.00000000D+00 -0.00000000D+00 -0.00000000D+00  0.32516524D-06  0.80594398D-06
  0.80594398D-06 -0.00000000D+00  0.00000000D+00  0.00000000D+00  0.21417268D-03
 -0.82489885D-03  0.22771210D-02 -0.19706147D-02 -0.44596092D-02  0.11674141D-01
 -0.25556415D-02 -0.18442387D-02 -0.26068258D-02  0.73822649D-03  0.20546695D-04
 -0.00000000D+00  0.00000000D+00 -0.10046364D-03  0.00000000D+00 -0.00000000D+00
  0.12721903D-03 -0.00000000D+00  0.00000000D+00 -0.14433156D-03  0.00000000D+00
 -0.00000000D+00 -0.58683354D-06 -0.54672517D-06 -0.54672517D-06  0.00000000D+00
 -0.00000000D+00  0.00000000D+00 -0.32516524D-06 -0.80594398D-06 -0.80594398D-06
 -0.00000000D+00  0.00000000D+00 -0.00000000D+00
MO   24     MO 0.0        OCC NO =    0.0000000  ORB. ENERGY =    0.043276
  0.00000000D+00 -0.00000000D+00 -0.00000000D+00  0.00000000D+00 -0.00000000D+00
  0.00000000D+00 -0.00000000D+00 -0.00000000D+00 -0.00000000D+00  0.00000000D+00
 -0.00000000D+00 -0.31632976D-06  0.48704254D-06  0.00000000D+00  0.24331527D-04
 -0.37462454D-04 -0.00000000D+00 -0.11903511D-03  0.18327446D-03  0.00000000D+00
  0.18675962D-03 -0.28754767D-03 -0.00000000D+00 -0.00000000D+00 -0.00000000D+00
 -0.20833925D-06  0.32077312D-06 -0.00000000D+00  0.00000000D+00 -0.00000000D+00
 -0.00000000D+00  0.11128437D-05 -0.17134089D-05  0.00000000D+00  0.00000000D+00
 -0.00000000D+00 -0.00000000D+00  0.00000000D+00 -0.00000000D+00  0.00000000D+00
 -0.00000000D+00 -0.00000000D+00 -0.00000000D+00  0.00000000D+00  0.00000000D+00
 -0.31632976D-06  0.48704254D-06 -0.00000000D+00  0.24331527D-04 -0.37462454D-04