 Molden2AIM, Version 3.1.0 (02/25/2015)           Time: Thu Oct 17 19:54:03 2024
GAUSSIAN             68 MOL ORBITALS     68 PRIMITIVES        2 NUCLEI
  Be   1    (CENTRE  1)   0.00000000  0.00000000  0.00000000  CHARGE =  4.0
  Be   2    (CENTRE  2)  27.60000000  0.00000000  0.00000000  CHARGE =  4.0
CENTRE ASSIGNMENTS    1  1  1  1  1  1  1  1  1  1  1  1  1  1  1  1  1  1  1  1
CENTRE ASSIGNMENTS    1  1  1  1  1  1  1  1  1  1  1  1  1  1  2  2  2  2  2  2
CENTRE ASSIGNMENTS    2  2  2  2  2  2  2  2  2  2  2  2  2  2  2  2  2  2  2  2
CENTRE ASSIGNMENTS    2  2  2  2  2  2  2  2
TYPE ASSIGNMENTS      1  1  1  1  1  1  1  1  1  1  2  3  4  2  3  4  2  3  4  2
TYPE ASSIGNMENTS      3  4  5  6  7  8  9 10  5  6  7  8  9 10  1  1  1  1  1  1
TYPE ASSIGNMENTS      1  1  1  1  2  3  4  2  3  4  2  3  4  2  3  4  5  6  7  8
TYPE ASSIGNMENTS      9 10  5  6  7  8  9 10
EXPONENTS  0.1000000D-03 0.3000000D-03 0.9000000D-03 0.2700000D-02 0.8100000D-02
EXPONENTS  0.2430000D-01 0.7290000D-01 0.2187000D+00 0.6561000D+00 0.1968300D+01
EXPONENTS  0.1000000D-03 0.1000000D-03 0.1000000D-03 0.3000000D-03 0.3000000D-03
EXPONENTS  0.3000000D-03 0.9000000D-03 0.9000000D-03 0.9000000D-03 0.2700000D-02
EXPONENTS  0.2700000D-02 0.2700000D-02 0.1000000D-03 0.1000000D-03 0.1000000D-03
EXPONENTS  0.1000000D-03 0.1000000D-03 0.1000000D-03 0.3000000D-03 0.3000000D-03
EXPONENTS  0.3000000D-03 0.3000000D-03 0.3000000D-03 0.3000000D-03 0.1000000D-03
EXPONENTS  0.3000000D-03 0.9000000D-03 0.2700000D-02 0.8100000D-02 0.2430000D-01
EXPONENTS  0.7290000D-01 0.2187000D+00 0.6561000D+00 0.1968300D+01 0.1000000D-03
EXPONENTS  0.1000000D-03 0.1000000D-03 0.3000000D-03 0.3000000D-03 0.3000000D-03
EXPONENTS  0.9000000D-03 0.9000000D-03 0.9000000D-03 0.2700000D-02 0.2700000D-02
EXPONENTS  0.2700000D-02 0.1000000D-03 0.1000000D-03 0.1000000D-03 0.1000000D-03
EXPONENTS  0.1000000D-03 0.1000000D-03 0.3000000D-03 0.3000000D-03 0.3000000D-03
EXPONENTS  0.3000000D-03 0.3000000D-03 0.3000000D-03
MO    1     MO 0.0        OCC NO =    1.0000000  ORB. ENERGY =   -0.003111
 -0.58057814D-04  0.10134448D-03  0.53842475D-04  0.23498702D-02  0.42004081D-02
  0.74509903D-02  0.10914974D-01 -0.20100040D-01 -0.31079541D-02  0.96026766D-04
  0.50060980D-05 -0.00000000D+00  0.00000000D+00 -0.62704537D-05 -0.00000000D+00
  0.00000000D+00  0.10851730D-04  0.00000000D+00 -0.00000000D+00 -0.21857016D-04
 -0.00000000D+00  0.00000000D+00  0.13657293D-07 -0.38396087D-09 -0.38396087D-09
 -0.00000000D+00  0.00000000D+00 -0.00000000D+00 -0.55292695D-07 -0.96525203D-08
 -0.96525203D-08 -0.00000000D+00  0.00000000D+00  0.00000000D+00 -0.58057814D-04
  0.10134448D-03  0.53842475D-04  0.23498702D-02  0.42004081D-02  0.74509903D-02
  0.10914974D-01 -0.20100040D-01 -0.31079541D-02  0.96026766D-04 -0.50060980D-05
  0.00000000D+00 -0.00000000D+00  0.62704537D-05  0.00000000D+00 -0.00000000D+00
 -0.10851730D-04 -0.00000000D+00  0.00000000D+00  0.21857016D-04 -0.00000000D+00
 -0.00000000D+00  0.13657293D-07 -0.38396087D-09 -0.38396087D-09 -0.00000000D+00
  0.00000000D+00  0.00000000D+00 -0.55292695D-07 -0.96525203D-08 -0.96525203D-08
 -0.00000000D+00  0.00000000D+00 -0.00000000D+00
MO    2     MO 0.0        OCC NO =    0.0000000  ORB. ENERGY =   -0.001823
  0.13071660D-05  0.11448303D-04  0.76866743D-03  0.30669290D-02  0.45109462D-02
  0.84991096D-02  0.11523620D-01 -0.21568000D-01 -0.34906584D-02  0.15205817D-03
 -0.16425267D-06  0.00000000D+00 -0.00000000D+00 -0.11704582D-05 -0.00000000D+00
  0.00000000D+00  0.30202951D-04 -0.00000000D+00  0.00000000D+00 -0.53950202D-04
  0.00000000D+00 -0.00000000D+00 -0.36166059D-08 -0.17396959D-08 -0.17396959D-08
  0.00000000D+00 -0.00000000D+00 -0.00000000D+00 -0.38920096D-07 -0.54430094D-07
 -0.54430094D-07 -0.00000000D+00 -0.00000000D+00  0.00000000D+00 -0.13071660D-05
 -0.11448303D-04 -0.76866743D-03 -0.30669290D-02 -0.45109462D-02 -0.84991096D-02
 -0.11523620D-01  0.21568000D-01  0.34906584D-02 -0.15205817D-03 -0.16425267D-06
 -0.00000000D+00  0.00000000D+00 -0.11704582D-05  0.00000000D+00 -0.00000000D+00
  0.30202951D-04 -0.00000000D+00  0.00000000D+00 -0.53950202D-04  0.00000000D+00
 -0.00000000D+00  0.36166059D-08  0.17396959D-08  0.17396959D-08  0.00000000D+00
 -0.00000000D+00 -0.00000000D+00  0.38920096D-07  0.54430094D-07  0.54430094D-07
 -0.00000000D+00  0.00000000D+00  0.00000000D+00
MO    3     MO 0.0        OCC NO =    0.0000000  ORB. ENERGY =    0.003995
 -0.61277974D-03  0.14478484D-03  0.42277770D-02 -0.76965103D-02  0.31894293D-03
 -0.52115738D-02 -0.31829766D-02  0.74991809D-02  0.18332132D-02 -0.25167350D-03
  0.37083420D-04 -0.00000000D+00  0.00000000D+00 -0.46658781D-04  0.00000000D+00
 -0.00000000D+00  0.11468806D-03 -0.00000000D+00  0.00000000D+00 -0.57519320D-04
  0.00000000D+00 -0.00000000D+00  0.10678317D-06  0.32970286D-08  0.32970286D-08
 -0.00000000D+00  0.00000000D+00  0.00000000D+00 -0.24048357D-06  0.85056366D-07
  0.85056366D-07  0.00000000D+00 -0.00000000D+00 -0.00000000D+00 -0.61277974D-03
  0.14478484D-03  0.42277770D-02 -0.76965103D-02  0.31894293D-03 -0.52115738D-02
 -0.31829766D-02  0.74991809D-02  0.18332132D-02 -0.25167350D-03 -0.37083420D-04
  0.00000000D+00 -0.00000000D+00  0.46658781D-04 -0.00000000D+00  0.00000000D+00
 -0.11468806D-03  0.00000000D+00 -0.00000000D+00  0.57519320D-04 -0.00000000D+00
  0.00000000D+00  0.10678317D-06  0.32970286D-08  0.32970286D-08 -0.00000000D+00
  0.00000000D+00 -0.00000000D+00 -0.24048357D-06  0.85056366D-07  0.85056366D-07
 -0.00000000D+00 -0.00000000D+00  0.00000000D+00
MO    4     MO 0.0        OCC NO =    0.0000000  ORB. ENERGY =    0.004574
  0.00000000D+00 -0.00000000D+00 -0.00000000D+00  0.00000000D+00  0.00000000D+00
  0.00000000D+00  0.00000000D+00 -0.00000000D+00  0.00000000D+00 -0.00000000D+00
 -0.00000000D+00 -0.40458365D-06 -0.37066244D-07  0.00000000D+00  0.57782930D-05
  0.52938210D-06 -0.00000000D+00 -0.89346127D-04 -0.81855057D-05  0.00000000D+00
 -0.22420910D-03 -0.20541067D-04 -0.00000000D+00 -0.00000000D+00 -0.00000000D+00
 -0.59040578D-08 -0.54090354D-09  0.00000000D+00  0.00000000D+00  0.00000000D+00
  0.00000000D+00 -0.22026026D-07 -0.20179305D-08 -0.00000000D+00  0.00000000D+00
 -0.00000000D+00  0.00000000D+00  0.00000000D+00 -0.00000000D+00  0.00000000D+00
 -0.00000000D+00  0.00000000D+00 -0.00000000D+00  0.00000000D+00  0.00000000D+00
 -0.40458365D-06 -0.37066244D-07 -0.00000000D+00  0.57782930D-05  0.52938210D-06
 -0.00000000D+00 -0.89346127D-04 -0.81855057D-05 -0.00000000D+00 -0.22420910D-03
 -0.20541067D-04 -0.00000000D+00  0.00000000D+00  0.00000000D+00  0.59040578D-08
  0.54090354D-09 -0.00000000D+00  0.00000000D+00  0.00000000D+00  0.00000000D+00
  0.22026026D-07  0.20179305D-08 -0.00000000D+00
MO    5     MO 0.0        OCC NO =    0.0000000  ORB. ENERGY =    0.004574
  0.00000000D+00  0.00000000D+00 -0.00000000D+00  0.00000000D+00  0.00000000D+00
 -0.00000000D+00  0.00000000D+00 -0.00000000D+00  0.00000000D+00 -0.00000000D+00
 -0.00000000D+00  0.37066244D-07 -0.40458365D-06 -0.00000000D+00 -0.52938210D-06
  0.57782930D-05 -0.00000000D+00  0.81855057D-05 -0.89346127D-04 -0.00000000D+00
  0.20541067D-04 -0.22420910D-03 -0.00000000D+00  0.00000000D+00  0.00000000D+00
  0.54090354D-09 -0.59040578D-08 -0.00000000D+00  0.00000000D+00  0.00000000D+00
  0.00000000D+00  0.20179305D-08 -0.22026026D-07  0.00000000D+00  0.00000000D+00
  0.00000000D+00  0.00000000D+00 -0.00000000D+00 -0.00000000D+00  0.00000000D+00
 -0.00000000D+00  0.00000000D+00 -0.00000000D+00  0.00000000D+00  0.00000000D+00
  0.37066244D-07 -0.40458365D-06  0.00000000D+00 -0.52938210D-06  0.57782930D-05
 -0.00000000D+00  0.81855057D-05 -0.89346127D-04 -0.00000000D+00  0.20541067D-04
 -0.22420910D-03 -0.00000000D+00 -0.00000000D+00 -0.00000000D+00 -0.54090354D-09
  0.59040578D-08  0.00000000D+00 -0.00000000D+00 -0.00000000D+00 -0.00000000D+00
 -0.20179305D-08  0.22026026D-07  0.00000000D+00
MO    6     MO 0.0        OCC NO =    0.0000000  ORB. ENERGY =    0.007301
 -0.00000000D+00  0.00000000D+00  0.00000000D+00 -0.00000000D+00 -0.00000000D+00
 -0.00000000D+00 -0.00000000D+00  0.00000000D+00  0.00000000D+00  0.00000000D+00
 -0.00000000D+00 -0.61749275D-04  0.17691209D-04  0.00000000D+00  0.52520065D-04
 -0.15047034D-04  0.00000000D+00 -0.96213025D-04  0.27565097D-04 -0.00000000D+00
 -0.57849943D-03  0.16574048D-03  0.00000000D+00  0.00000000D+00  0.00000000D+00
 -0.16960970D-06  0.48593294D-07 -0.00000000D+00  0.00000000D+00  0.00000000D+00
  0.00000000D+00  0.35462038D-06 -0.10159898D-06  0.00000000D+00  0.00000000D+00
 -0.00000000D+00 -0.00000000D+00  0.00000000D+00  0.00000000D+00  0.00000000D+00
  0.00000000D+00 -0.00000000D+00  0.00000000D+00 -0.00000000D+00 -0.00000000D+00
  0.61749275D-04 -0.17691209D-04  0.00000000D+00 -0.52520065D-04  0.15047034D-04
  0.00000000D+00  0.96213025D-04 -0.27565097D-04 -0.00000000D+00  0.57849943D-03
 -0.16574048D-03  0.00000000D+00 -0.00000000D+00 -0.00000000D+00 -0.16960970D-06
  0.48593294D-07  0.00000000D+00 -0.00000000D+00 -0.00000000D+00 -0.00000000D+00
  0.35462038D-06 -0.10159898D-06 -0.00000000D+00
MO    7     MO 0.0        OCC NO =    0.0000000  ORB. ENERGY =    0.007301
 -0.00000000D+00  0.00000000D+00  0.00000000D+00 -0.00000000D+00 -0.00000000D+00
 -0.00000000D+00 -0.00000000D+00  0.00000000D+00  0.00000000D+00  0.00000000D+00
 -0.00000000D+00 -0.17691209D-04 -0.61749275D-04  0.00000000D+00  0.15047034D-04
  0.52520065D-04  0.00000000D+00 -0.27565097D-04 -0.96213025D-04 -0.00000000D+00
 -0.16574048D-03 -0.57849943D-03 -0.00000000D+00  0.00000000D+00  0.00000000D+00
 -0.48593294D-07 -0.16960970D-06  0.00000000D+00  0.00000000D+00  0.00000000D+00
  0.00000000D+00  0.10159898D-06  0.35462038D-06 -0.00000000D+00  0.00000000D+00
 -0.00000000D+00 -0.00000000D+00  0.00000000D+00  0.00000000D+00  0.00000000D+00
  0.00000000D+00 -0.00000000D+00 -0.00000000D+00 -0.00000000D+00 -0.00000000D+00
  0.17691209D-04  0.61749275D-04  0.00000000D+00 -0.15047034D-04 -0.52520065D-04
  0.00000000D+00  0.27565097D-04  0.96213025D-04  0.00000000D+00  0.16574048D-03
  0.57849943D-03  0.00000000D+00 -0.00000000D+00 -0.00000000D+00 -0.48593294D-07
 -0.16960970D-06 -0.00000000D+00 -0.00000000D+00 -0.00000000D+00 -0.00000000D+00
  0.10159898D-06  0.35462038D-06  0.00000000D+00
MO    8     MO 0.0        OCC NO =    0.0000000  ORB. ENERGY =    0.007325
 -0.12489493D-04  0.71169603D-05  0.16873475D-01 -0.45943459D-03 -0.88499644D-02
 -0.18766123D-02 -0.80346981D-02  0.12751323D-01  0.12218806D-02  0.19292995D-03
  0.16450093D-05  0.00000000D+00 -0.00000000D+00 -0.67759968D-06 -0.00000000D+00
 -0.00000000D+00  0.32081937D-03  0.00000000D+00  0.00000000D+00 -0.14718612D-05
  0.00000000D+00  0.00000000D+00  0.18326167D-07  0.33278184D-07  0.33278184D-07
  0.00000000D+00 -0.00000000D+00 -0.00000000D+00  0.33122590D-06  0.15543843D-06
  0.15543843D-06 -0.00000000D+00  0.00000000D+00 -0.00000000D+00  0.12489493D-04
 -0.71169603D-05 -0.16873475D-01  0.45943459D-03  0.88499644D-02  0.18766123D-02
  0.80346981D-02 -0.12751323D-01 -0.12218806D-02 -0.19292995D-03  0.16450093D-05
 -0.00000000D+00  0.00000000D+00 -0.67759968D-06  0.00000000D+00 -0.00000000D+00
  0.32081937D-03 -0.00000000D+00 -0.00000000D+00 -0.14718612D-05 -0.00000000D+00
 -0.00000000D+00 -0.18326167D-07 -0.33278184D-07 -0.33278184D-07  0.00000000D+00
 -0.00000000D+00  0.00000000D+00 -0.33122590D-06 -0.15543843D-06 -0.15543843D-06
 -0.00000000D+00 -0.00000000D+00 -0.00000000D+00
MO    9     MO 0.0        OCC NO =    0.0000000  ORB. ENERGY =    0.007625
 -0.13339697D-03  0.13977610D-03 -0.74192105D-04 -0.31649374D-02  0.26714113D-02
 -0.43604546D-04  0.15476463D-02 -0.22635272D-02 -0.14265622D-03 -0.58080323D-04
  0.95784915D-05 -0.00000000D+00  0.00000000D+00 -0.90381849D-05  0.00000000D+00
 -0.00000000D+00  0.19169177D-04 -0.00000000D+00  0.00000000D+00  0.53669051D-03
  0.00000000D+00 -0.00000000D+00  0.26785173D-07  0.90761120D-10  0.90761120D-10
 -0.00000000D+00  0.00000000D+00  0.00000000D+00 -0.65952149D-07 -0.58479549D-08
 -0.58479549D-08  0.00000000D+00 -0.00000000D+00 -0.00000000D+00 -0.13339697D-03
  0.13977610D-03 -0.74192105D-04 -0.31649374D-02  0.26714113D-02 -0.43604546D-04
  0.15476463D-02 -0.22635272D-02 -0.14265622D-03 -0.58080323D-04 -0.95784915D-05
  0.00000000D+00 -0.00000000D+00  0.90381849D-05 -0.00000000D+00  0.00000000D+00
 -0.19169177D-04  0.00000000D+00 -0.00000000D+00 -0.53669051D-03 -0.00000000D+00
  0.00000000D+00  0.26785173D-07  0.90761120D-10  0.90761120D-10 -0.00000000D+00
  0.00000000D+00 -0.00000000D+00 -0.65952149D-07 -0.58479549D-08 -0.58479549D-08
 -0.00000000D+00 -0.00000000D+00 -0.00000000D+00
MO   10     MO 0.0        OCC NO =    0.0000000  ORB. ENERGY =    0.011301
 -0.00000000D+00 -0.00000000D+00  0.00000000D+00  0.00000000D+00  0.00000000D+00
  0.00000000D+00  0.00000000D+00 -0.00000000D+00 -0.00000000D+00  0.00000000D+00
 -0.00000000D+00 -0.32935132D-06  0.67472326D-06  0.00000000D+00  0.47238948D-05
 -0.96775755D-05  0.00000000D+00 -0.86173615D-04  0.17653900D-03  0.00000000D+00
  0.35045144D-03 -0.71794999D-03  0.00000000D+00  0.00000000D+00  0.00000000D+00
 -0.34719704D-08  0.71128291D-08  0.00000000D+00  0.00000000D+00  0.00000000D+00
  0.00000000D+00 -0.27046171D-07  0.55407951D-07 -0.00000000D+00 -0.00000000D+00
 -0.00000000D+00 -0.00000000D+00 -0.00000000D+00 -0.00000000D+00 -0.00000000D+00
 -0.00000000D+00  0.00000000D+00  0.00000000D+00  0.00000000D+00  0.00000000D+00
 -0.32935132D-06  0.67472326D-06 -0.00000000D+00  0.47238948D-05 -0.96775755D-05
  0.00000000D+00 -0.86173615D-04  0.17653900D-03  0.00000000D+00  0.35045144D-03
 -0.71794999D-03 -0.00000000D+00 -0.00000000D+00 -0.00000000D+00  0.34719704D-08
 -0.71128291D-08 -0.00000000D+00 -0.00000000D+00  0.00000000D+00  0.00000000D+00
  0.27046171D-07 -0.55407951D-07  0.00000000D+00
MO   11     MO 0.0        OCC NO =    0.0000000  ORB. ENERGY =    0.011301
 -0.00000000D+00  0.00000000D+00  0.00000000D+00  0.00000000D+00 -0.00000000D+00
  0.00000000D+00 -0.00000000D+00  0.00000000D+00  0.00000000D+00 -0.00000000D+00
  0.00000000D+00  0.67472326D-06  0.32935132D-06 -0.00000000D+00 -0.96775755D-05
 -0.47238948D-05  0.00000000D+00  0.17653900D-03  0.86173615D-04  0.00000000D+00
 -0.71794999D-03 -0.35045144D-03  0.00000000D+00  0.00000000D+00  0.00000000D+00
  0.71128291D-08  0.34719704D-08  0.00000000D+00 -0.00000000D+00  0.00000000D+00
  0.00000000D+00  0.55407951D-07  0.27046171D-07 -0.00000000D+00 -0.00000000D+00
  0.00000000D+00 -0.00000000D+00 -0.00000000D+00 -0.00000000D+00 -0.00000000D+00
 -0.00000000D+00  0.00000000D+00  0.00000000D+00 -0.00000000D+00 -0.00000000D+00
  0.67472326D-06  0.32935132D-06  0.00000000D+00 -0.96775755D-05 -0.47238948D-05
  0.00000000D+00  0.17653900D-03  0.86173615D-04  0.00000000D+00 -0.71794999D-03
 -0.35045144D-03  0.00000000D+00 -0.00000000D+00 -0.00000000D+00 -0.71128291D-08
 -0.34719704D-08 -0.00000000D+00 -0.00000000D+00 -0.00000000D+00 -0.00000000D+00
 -0.55407951D-07 -0.27046171D-07  0.00000000D+00
MO   12     MO 0.0        OCC NO =    0.0000000  ORB. ENERGY =    0.011376
 -0.98963431D-05  0.36707705D-04  0.20389966D-01  0.96133815D-03  0.44973273D-03
  0.28946940D-02  0.14750807D-02 -0.37062056D-02 -0.97926580D-03  0.14560349D-03
  0.13195183D-05 -0.00000000D+00 -0.00000000D+00 -0.35527804D-05  0.00000000D+00
  0.00000000D+00  0.42852075D-03  0.00000000D+00 -0.00000000D+00  0.13220862D-02
 -0.00000000D+00  0.00000000D+00  0.10781260D-07  0.30341778D-07  0.30341778D-07
 -0.00000000D+00 -0.00000000D+00 -0.00000000D+00  0.24805281D-06  0.34854771D-07
  0.34854771D-07  0.00000000D+00  0.00000000D+00  0.00000000D+00  0.98963431D-05
 -0.36707705D-04 -0.20389966D-01 -0.96133815D-03 -0.44973273D-03 -0.28946940D-02
 -0.14750807D-02  0.37062056D-02  0.97926580D-03 -0.14560349D-03  0.13195183D-05
  0.00000000D+00  0.00000000D+00 -0.35527804D-05 -0.00000000D+00 -0.00000000D+00
  0.42852075D-03  0.00000000D+00 -0.00000000D+00  0.13220862D-02 -0.00000000D+00
  0.00000000D+00 -0.10781260D-07 -0.30341778D-07 -0.30341778D-07 -0.00000000D+00
 -0.00000000D+00  0.00000000D+00 -0.24805281D-06 -0.34854771D-07 -0.34854771D-07
  0.00000000D+00  0.00000000D+00 -0.00000000D+00
MO   13     MO 0.0        OCC NO =    0.0000000  ORB. ENERGY =    0.012438
 -0.45756930D-03  0.10981082D-02  0.29556265D-03 -0.13395282D-01  0.22426590D-01
 -0.27833695D-02  0.13914428D-01 -0.18833075D-01 -0.38671021D-03 -0.75089899D-03
  0.54241512D-04 -0.00000000D+00  0.00000000D+00 -0.40497771D-04 -0.00000000D+00
 -0.00000000D+00  0.14903985D-03 -0.00000000D+00  0.00000000D+00 -0.22876721D-03
  0.00000000D+00 -0.00000000D+00  0.14154489D-06 -0.98450542D-08 -0.98450542D-08
 -0.00000000D+00  0.00000000D+00  0.00000000D+00 -0.48796004D-06 -0.23698481D-06
 -0.23698481D-06 -0.00000000D+00 -0.00000000D+00 -0.00000000D+00 -0.45756930D-03
  0.10981082D-02  0.29556265D-03 -0.13395282D-01  0.22426590D-01 -0.27833695D-02
  0.13914428D-01 -0.18833075D-01 -0.38671021D-03 -0.75089899D-03 -0.54241512D-04
  0.00000000D+00 -0.00000000D+00  0.40497771D-04  0.00000000D+00  0.00000000D+00
 -0.14903985D-03  0.00000000D+00 -0.00000000D+00  0.22876721D-03 -0.00000000D+00
  0.00000000D+00  0.14154489D-06 -0.98450542D-08 -0.98450542D-08 -0.00000000D+00
  0.00000000D+00 -0.00000000D+00 -0.48796004D-06 -0.23698481D-06 -0.23698481D-06
 -0.00000000D+00 -0.00000000D+00  0.00000000D+00
MO   14     MO 0.0        OCC NO =    0.0000000  ORB. ENERGY =    0.016815
 -0.00000000D+00  0.00000000D+00  0.00000000D+00 -0.00000000D+00  0.00000000D+00
 -0.00000000D+00  0.00000000D+00 -0.00000000D+00  0.00000000D+00 -0.00000000D+00
  0.00000000D+00 -0.23773914D-03  0.32561415D-04  0.00000000D+00  0.19971572D-03
 -0.27353622D-04  0.00000000D+00 -0.45560311D-03  0.62400671D-04 -0.00000000D+00
  0.87942586D-03 -0.12044862D-03  0.00000000D+00  0.00000000D+00  0.00000000D+00
 -0.65305258D-06  0.89443904D-07 -0.00000000D+00  0.00000000D+00  0.00000000D+00
  0.00000000D+00  0.13364787D-05 -0.18304784D-06  0.00000000D+00  0.00000000D+00
 -0.00000000D+00 -0.00000000D+00  0.00000000D+00 -0.00000000D+00  0.00000000D+00
 -0.00000000D+00  0.00000000D+00 -0.00000000D+00  0.00000000D+00 -0.00000000D+00
  0.23773914D-03 -0.32561415D-04  0.00000000D+00 -0.19971572D-03  0.27353622D-04
  0.00000000D+00  0.45560311D-03 -0.62400671D-04 -0.00000000D+00 -0.87942586D-03
  0.12044862D-03  0.00000000D+00 -0.00000000D+00 -0.00000000D+00 -0.65305258D-06
  0.89443904D-07  0.00000000D+00 -0.00000000D+00 -0.00000000D+00 -0.00000000D+00
  0.13364787D-05 -0.18304784D-06 -0.00000000D+00
MO   15     MO 0.0        OCC NO =    0.0000000  ORB. ENERGY =    0.016815
  0.00000000D+00 -0.00000000D+00  0.00000000D+00 -0.00000000D+00  0.00000000D+00
 -0.00000000D+00  0.00000000D+00 -0.00000000D+00  0.00000000D+00 -0.00000000D+00
  0.00000000D+00  0.32561415D-04  0.23773914D-03 -0.00000000D+00 -0.27353622D-04
 -0.19971572D-03 -0.00000000D+00  0.62400671D-04  0.45560311D-03  0.00000000D+00
 -0.12044862D-03 -0.87942586D-03 -0.00000000D+00  0.00000000D+00  0.00000000D+00
  0.89443904D-07  0.65305258D-06 -0.00000000D+00 -0.00000000D+00  0.00000000D+00
  0.00000000D+00 -0.18304784D-06 -0.13364787D-05  0.00000000D+00 -0.00000000D+00
  0.00000000D+00 -0.00000000D+00  0.00000000D+00 -0.00000000D+00 -0.00000000D+00
  0.00000000D+00  0.00000000D+00  0.00000000D+00 -0.00000000D+00  0.00000000D+00
 -0.32561415D-04 -0.23773914D-03 -0.00000000D+00  0.27353622D-04  0.19971572D-03
  0.00000000D+00 -0.62400671D-04 -0.45560311D-03 -0.00000000D+00  0.12044862D-03
  0.87942586D-03 -0.00000000D+00 -0.00000000D+00 -0.00000000D+00  0.89443904D-07
  0.65305258D-06  0.00000000D+00 -0.00000000D+00  0.00000000D+00  0.00000000D+00
 -0.18304784D-06 -0.13364787D-05 -0.00000000D+00
MO   16     MO 0.0        OCC NO =    0.0000000  ORB. ENERGY =    0.016976
 -0.84483750D-05 -0.22063162D-04  0.17517933D-01 -0.28013888D-01  0.27538437D-01
 -0.55162915D-02  0.12265080D-01 -0.15135328D-01  0.37386663D-03 -0.82718271D-03
  0.10999367D-05 -0.00000000D+00  0.00000000D+00  0.40926550D-05 -0.00000000D+00
  0.00000000D+00  0.24970843D-03  0.00000000D+00 -0.00000000D+00 -0.57835944D-03
 -0.00000000D+00  0.00000000D+00  0.13336394D-07  0.19815006D-07  0.19815006D-07
 -0.00000000D+00  0.00000000D+00 -0.00000000D+00  0.28630884D-06  0.18823403D-06
  0.18823403D-06 -0.00000000D+00  0.00000000D+00  0.00000000D+00  0.84483750D-05
  0.22063162D-04 -0.17517933D-01  0.28013888D-01 -0.27538437D-01  0.55162915D-02
 -0.12265080D-01  0.15135328D-01 -0.37386663D-03  0.82718271D-03  0.10999367D-05
  0.00000000D+00 -0.00000000D+00  0.40926550D-05  0.00000000D+00 -0.00000000D+00
  0.24970843D-03 -0.00000000D+00  0.00000000D+00 -0.57835944D-03  0.00000000D+00
 -0.00000000D+00 -0.13336394D-07 -0.19815006D-07 -0.19815006D-07 -0.00000000D+00
  0.00000000D+00  0.00000000D+00 -0.28630884D-06 -0.18823403D-06 -0.18823403D-06
 -0.00000000D+00  0.00000000D+00 -0.00000000D+00
MO   17     MO 0.0        OCC NO =    0.0000000  ORB. ENERGY =    0.019046
 -0.17847581D-02  0.35124347D-02 -0.65624805D-02  0.10231540D-01 -0.10068196D-01
  0.60500117D-03 -0.46140827D-02  0.64528707D-02  0.27760733D-03  0.21211635D-03
  0.15063704D-03 -0.00000000D+00 -0.00000000D+00 -0.16795830D-03 -0.00000000D+00
  0.00000000D+00  0.32762860D-03  0.00000000D+00  0.00000000D+00 -0.57819563D-03
 -0.00000000D+00 -0.00000000D+00  0.41293059D-06 -0.97763369D-08 -0.97763369D-08
 -0.00000000D+00 -0.00000000D+00 -0.00000000D+00 -0.15488581D-05 -0.34431648D-06
 -0.34431648D-06 -0.00000000D+00  0.00000000D+00  0.00000000D+00 -0.17847581D-02
  0.35124347D-02 -0.65624805D-02  0.10231540D-01 -0.10068196D-01  0.60500117D-03
 -0.46140827D-02  0.64528707D-02  0.27760733D-03  0.21211635D-03 -0.15063704D-03
  0.00000000D+00  0.00000000D+00  0.16795830D-03  0.00000000D+00 -0.00000000D+00
 -0.32762860D-03 -0.00000000D+00 -0.00000000D+00  0.57819563D-03  0.00000000D+00
  0.00000000D+00  0.41293059D-06 -0.97763369D-08 -0.97763369D-08 -0.00000000D+00
 -0.00000000D+00  0.00000000D+00 -0.15488581D-05 -0.34431648D-06 -0.34431648D-06
 -0.00000000D+00  0.00000000D+00 -0.00000000D+00
MO   18     MO 0.0        OCC NO =    0.0000000  ORB. ENERGY =    0.023323
  0.48887134D-04  0.46287508D-03  0.39012541D-01 -0.14632513D-01  0.98830307D-02
 -0.40081428D-02  0.32209907D-02 -0.26869686D-02  0.76914962D-03 -0.37356638D-03
 -0.61564818D-05 -0.00000000D+00 -0.00000000D+00 -0.45473247D-04  0.00000000D+00
  0.00000000D+00  0.14678649D-02 -0.00000000D+00 -0.00000000D+00 -0.13708108D-02
 -0.00000000D+00  0.00000000D+00 -0.13580371D-06 -0.71376324D-07 -0.71376324D-07
 -0.00000000D+00 -0.00000000D+00 -0.00000000D+00 -0.14937587D-05 -0.19805130D-05
 -0.19805130D-05  0.00000000D+00  0.00000000D+00 -0.00000000D+00 -0.48887134D-04
 -0.46287508D-03 -0.39012541D-01  0.14632513D-01 -0.98830307D-02  0.40081428D-02
 -0.32209907D-02  0.26869686D-02 -0.76914962D-03  0.37356638D-03 -0.61564818D-05
  0.00000000D+00  0.00000000D+00 -0.45473247D-04 -0.00000000D+00 -0.00000000D+00
  0.14678649D-02  0.00000000D+00  0.00000000D+00 -0.13708108D-02  0.00000000D+00
 -0.00000000D+00  0.13580371D-06  0.71376324D-07  0.71376324D-07 -0.00000000D+00
 -0.00000000D+00  0.00000000D+00  0.14937587D-05  0.19805130D-05  0.19805130D-05
  0.00000000D+00  0.00000000D+00  0.00000000D+00
MO   19     MO 0.0        OCC NO =    0.0000000  ORB. ENERGY =    0.028346
  0.34285995D-02  0.28748492D-02 -0.17457533D-01  0.18387181D-01 -0.92571265D-02
 -0.65027157D-02 -0.22843382D-02  0.68288644D-02  0.21351412D-02 -0.36381922D-03
 -0.75873550D-04  0.00000000D+00 -0.00000000D+00  0.21007067D-03  0.00000000D+00
  0.00000000D+00 -0.11594354D-04 -0.00000000D+00 -0.00000000D+00 -0.41953304D-05
  0.00000000D+00  0.00000000D+00 -0.29754797D-06 -0.81857805D-07 -0.81857805D-07
  0.00000000D+00 -0.00000000D+00  0.00000000D+00 -0.10342069D-06 -0.17950905D-05
 -0.17950905D-05  0.00000000D+00  0.00000000D+00 -0.00000000D+00  0.34285995D-02
  0.28748492D-02 -0.17457533D-01  0.18387181D-01 -0.92571265D-02 -0.65027157D-02
 -0.22843382D-02  0.68288644D-02  0.21351412D-02 -0.36381922D-03  0.75873550D-04
 -0.00000000D+00  0.00000000D+00 -0.21007067D-03 -0.00000000D+00 -0.00000000D+00
  0.11594354D-04  0.00000000D+00  0.00000000D+00  0.41953304D-05 -0.00000000D+00
 -0.00000000D+00 -0.29754797D-06 -0.81857805D-07 -0.81857805D-07  0.00000000D+00
 -0.00000000D+00 -0.00000000D+00 -0.10342069D-06 -0.17950905D-05 -0.17950905D-05
  0.00000000D+00  0.00000000D+00  0.00000000D+00
MO   20     MO 0.0        OCC NO =    0.0000000  ORB. ENERGY =    0.037557
 -0.27354508D-03 -0.49443433D-03  0.14467389D-01 -0.10136858D-01  0.91921306D-03
  0.11309538D-01 -0.14288214D-02 -0.36137149D-02 -0.28687995D-02  0.74310599D-03
  0.34532874D-04 -0.00000000D+00  0.00000000D+00  0.26588259D-04 -0.00000000D+00
 -0.00000000D+00 -0.29790586D-03 -0.00000000D+00  0.00000000D+00  0.33072200D-03
  0.00000000D+00 -0.00000000D+00  0.68673357D-06  0.68070501D-06  0.68070501D-06
 -0.00000000D+00  0.00000000D+00 -0.00000000D+00  0.56579467D-05  0.54099193D-05
  0.54099193D-05 -0.00000000D+00 -0.00000000D+00  0.00000000D+00  0.27354508D-03
  0.49443433D-03 -0.14467389D-01  0.10136858D-01 -0.91921306D-03 -0.11309538D-01
  0.14288214D-02  0.36137149D-02  0.28687995D-02 -0.74310599D-03  0.34532874D-04
  0.00000000D+00 -0.00000000D+00  0.26588259D-04  0.00000000D+00  0.00000000D+00
 -0.29790586D-03  0.00000000D+00 -0.00000000D+00  0.33072200D-03 -0.00000000D+00
  0.00000000D+00 -0.68673357D-06 -0.68070501D-06 -0.68070501D-06 -0.00000000D+00
  0.00000000D+00  0.00000000D+00 -0.56579467D-05 -0.54099193D-05 -0.54099193D-05
 -0.00000000D+00 -0.00000000D+00 -0.00000000D+00
MO   21     MO 0.0        OCC NO =    0.0000000  ORB. ENERGY =    0.038655
 -0.00000000D+00  0.00000000D+00 -0.00000000D+00  0.00000000D+00  0.00000000D+00
 -0.00000000D+00  0.00000000D+00  0.00000000D+00 -0.00000000D+00  0.00000000D+00
  0.00000000D+00 -0.00000000D+00  0.00000000D+00 -0.00000000D+00  0.00000000D+00
 -0.00000000D+00  0.00000000D+00 -0.00000000D+00  0.00000000D+00 -0.00000000D+00
  0.00000000D+00 -0.00000000D+00  0.00000000D+00 -0.17343457D-07  0.17343457D-07
 -0.00000000D+00  0.00000000D+00  0.84940332D-07 -0.00000000D+00  0.23715782D-06
 -0.23715782D-06  0.00000000D+00 -0.00000000D+00 -0.11614907D-05 -0.00000000D+00
  0.00000000D+00 -0.00000000D+00  0.00000000D+00  0.00000000D+00 -0.00000000D+00
  0.00000000D+00  0.00000000D+00  0.00000000D+00 -0.00000000D+00 -0.00000000D+00
  0.00000000D+00 -0.00000000D+00  0.00000000D+00 -0.00000000D+00  0.00000000D+00
 -0.00000000D+00  0.00000000D+00 -0.00000000D+00  0.00000000D+00 -0.00000000D+00
  0.00000000D+00  0.00000000D+00 -0.17343457D-07  0.17343457D-07 -0.00000000D+00
  0.00000000D+00  0.84940332D-07  0.00000000D+00  0.23715782D-06 -0.23715782D-06
  0.00000000D+00 -0.00000000D+00 -0.11614907D-05
MO   22     MO 0.0        OCC NO =    0.0000000  ORB. ENERGY =    0.038655
  0.00000000D+00 -0.00000000D+00 -0.00000000D+00  0.00000000D+00  0.00000000D+00
 -0.00000000D+00  0.00000000D+00 -0.00000000D+00  0.00000000D+00 -0.00000000D+00
 -0.00000000D+00 -0.00000000D+00  0.00000000D+00  0.00000000D+00  0.00000000D+00
 -0.00000000D+00 -0.00000000D+00 -0.00000000D+00  0.00000000D+00 -0.00000000D+00
  0.00000000D+00 -0.00000000D+00 -0.00000000D+00 -0.42470167D-07  0.42470167D-07
 -0.00000000D+00  0.00000000D+00 -0.34686913D-07  0.00000000D+00  0.58074533D-06
 -0.58074533D-06  0.00000000D+00 -0.00000000D+00  0.47431564D-06  0.00000000D+00
 -0.00000000D+00  0.00000000D+00 -0.00000000D+00  0.00000000D+00  0.00000000D+00
 -0.00000000D+00  0.00000000D+00 -0.00000000D+00  0.00000000D+00  0.00000000D+00
  0.00000000D+00 -0.00000000D+00 -0.00000000D+00 -0.00000000D+00  0.00000000D+00
  0.00000000D+00  0.00000000D+00 -0.00000000D+00 -0.00000000D+00 -0.00000000D+00
  0.00000000D+00 -0.00000000D+00 -0.42470167D-07  0.42470167D-07 -0.00000000D+00
  0.00000000D+00 -0.34686913D-07  0.00000000D+00  0.58074533D-06 -0.58074533D-06
  0.00000000D+00 -0.00000000D+00  0.47431564D-06
MO   23     MO 0.0        OCC NO =    0.0000000  ORB. ENERGY =    0.042456
 -0.18943004D-03  0.63510276D-03 -0.13941831D-03  0.12984788D-02  0.27851140D-02
 -0.80195346D-02  0.18043821D-02  0.12825980D-02  0.18458126D-02 -0.52504423D-03
  0.22121420D-04  0.00000000D+00  0.00000000D+00 -0.96851269D-04 -0.00000000D+00
 -0.00000000D+00  0.13993366D-03  0.00000000D+00  0.00000000D+00 -0.16509139D-03
 -0.00000000D+00 -0.00000000D+00  0.73121299D-06  0.68882506D-06  0.68882506D-06
  0.00000000D+00  0.00000000D+00 -0.00000000D+00  0.83043993D-06  0.12621138D-05
  0.12621138D-05 -0.00000000D+00 -0.00000000D+00  0.00000000D+00  0.18943004D-03
 -0.63510276D-03  0.13941831D-03 -0.12984788D-02 -0.27851140D-02  0.80195346D-02
 -0.18043821D-02 -0.12825980D-02 -0.18458126D-02  0.52504423D-03  0.22121420D-04
 -0.00000000D+00 -0.00000000D+00 -0.96851269D-04  0.00000000D+00  0.00000000D+00
  0.13993366D-03 -0.00000000D+00 -0.00000000D+00 -0.16509139D-03  0.00000000D+00
  0.00000000D+00 -0.73121299D-06 -0.68882506D-06 -0.68882506D-06  0.00000000D+00
  0.00000000D+00  0.00000000D+00 -0.83043993D-06 -0.12621138D-05 -0.12621138D-05
 -0.00000000D+00 -0.00000000D+00 -0.00000000D+00
MO   24     MO 0.0        OCC NO =    0.0000000  ORB. ENERGY =    0.042947
 -0.00000000D+00  0.00000000D+00 -0.00000000D+00  0.00000000D+00  0.00000000D+00
 -0.00000000D+00  0.00000000D+00  0.00000000D+00  0.00000000D+00 -0.00000000D+00
  0.00000000D+00 -0.10290998D-05  0.20903081D-07 -0.00000000D+00  0.47507090D-04
 -0.96496670D-06  0.00000000D+00 -0.21642916D-03  0.43961208D-05 -0.00000000D+00
  0.33773416D-03 -0.68600736D-05  0.00000000D+00  0.00000000D+00  0.00000000D+00
 -0.42685617D-06  0.86703272D-08  0.00000000D+00 -0.00000000D+00 -0.00000000D+00
 -0.00000000D+00  0.22043087D-05 -0.44774046D-07 -0.00000000D+00 -0.00000000D+00
  0.00000000D+00 -0.00000000D+00  0.00000000D+00  0.00000000D+00 -0.00000000D+00
  0.00000000D+00  0.00000000D+00  0.00000000D+00 -0.00000000D+00 -0.00000000D+00
 -0.10290998D-05  0.20903081D-07  0.00000000D+00  0.47507090D-04 -0.96496670D-06