[Molden Format]
[Atoms] AU
E+       1       4     0.00000000     0.00000000     0.00000000
E+       2       4     2.20000000     0.00000000     0.00000000
[GTO]
  1 0
s  1 1.00
   1.0000000000E-04   1.0000000000E+00
s  1 1.00
   3.0000000000E-04   1.0000000000E+00
s  1 1.00
   9.0000000000E-04   1.0000000000E+00
s  1 1.00
   2.7000000000E-03   1.0000000000E+00
s  1 1.00
   8.1000000000E-03   1.0000000000E+00
s  1 1.00
   2.4300000000E-02   1.0000000000E+00
s  1 1.00
   7.2900000000E-02   1.0000000000E+00
s  1 1.00
   2.1870000000E-01   1.0000000000E+00
s  1 1.00
   6.5610000000E-01   1.0000000000E+00
s  1 1.00
   1.9683000000E+00   1.0000000000E+00
p  1 1.00
   1.0000000000E-04   1.0000000000E+00
p  1 1.00
   3.0000000000E-04   1.0000000000E+00
p  1 1.00
   9.0000000000E-04   1.0000000000E+00
p  1 1.00
   2.7000000000E-03   1.0000000000E+00
d  1 1.00
   1.0000000000E-04   1.0000000000E+00
d  1 1.00
   3.0000000000E-04   1.0000000000E+00
 
  2 0
s  1 1.00
   1.0000000000E-04   1.0000000000E+00
s  1 1.00
   3.0000000000E-04   1.0000000000E+00
s  1 1.00
   9.0000000000E-04   1.0000000000E+00
s  1 1.00
   2.7000000000E-03   1.0000000000E+00
s  1 1.00
   8.1000000000E-03   1.0000000000E+00
s  1 1.00
   2.4300000000E-02   1.0000000000E+00
s  1 1.00
   7.2900000000E-02   1.0000000000E+00
s  1 1.00
   2.1870000000E-01   1.0000000000E+00
s  1 1.00
   6.5610000000E-01   1.0000000000E+00
s  1 1.00
   1.9683000000E+00   1.0000000000E+00
p  1 1.00
   1.0000000000E-04   1.0000000000E+00
p  1 1.00
   3.0000000000E-04   1.0000000000E+00
p  1 1.00
   9.0000000000E-04   1.0000000000E+00
p  1 1.00
   2.7000000000E-03   1.0000000000E+00
d  1 1.00
   1.0000000000E-04   1.0000000000E+00
d  1 1.00
   3.0000000000E-04   1.0000000000E+00
 
 
[MO]
Ene=    -2.73455E-02
Spin= Alpha
Occup=   1.0000000000
   1      -0.00817474
   2      -0.00782196
   3       0.01389584
   4      -0.00689585
   5       0.14265983
   6       0.26507182
   7       0.26000008
   8      -0.19093038
   9      -0.01349465
  10      -0.00050910
  11      -0.00020211
  12       0.00000000
  13      -0.00000000
  14      -0.00042788
  15      -0.00000000
  16       0.00000000
  17      -0.00157484
  18      -0.00000000
  19       0.00000000
  20       0.01109329
  21       0.00000000
  22      -0.00000000
  23       0.00117854
  24       0.00120382
  25       0.00120382
  26       0.00000000
  27       0.00000000
  28       0.00000000
  29       0.00391140
  30       0.00388821
  31       0.00388821
  32      -0.00000000
  33      -0.00000000
  34      -0.00000000
  35      -0.00817474
  36      -0.00782196
  37       0.01389584
  38      -0.00689585
  39       0.14265983
  40       0.26507182
  41       0.26000008
  42      -0.19093038
  43      -0.01349465
  44      -0.00050910
  45       0.00020211
  46      -0.00000000
  47      -0.00000000
  48       0.00042788
  49      -0.00000000
  50      -0.00000000
  51       0.00157484
  52       0.00000000
  53      -0.00000000
  54      -0.01109329
  55      -0.00000000
  56       0.00000000
  57       0.00117854
  58       0.00120382
  59       0.00120382
  60      -0.00000000
  61      -0.00000000
  62      -0.00000000
  63       0.00391140
  64       0.00388821
  65       0.00388821
  66       0.00000000
  67       0.00000000
  68       0.00000000
Ene=     2.06090E-03
Spin= Alpha
Occup=   0.0000000000
   1       0.12085515
   2       0.30956489
   3      -1.06691788
   4       0.45996457
   5      -0.07207683
   6       0.07742131
   7       0.01125311
   8      -0.01421830
   9      -0.00285326
  10       0.00019979
  11       0.00299036
  12      -0.00000000
  13       0.00000000
  14       0.01455075
  15      -0.00000000
  16      -0.00000000
  17       0.43760151
  18      -0.00000000
  19      -0.00000000
  20      -0.32017294
  21       0.00000000
  22      -0.00000000
  23      -0.01820932
  24      -0.01534631
  25      -0.01534631
  26      -0.00000000
  27      -0.00000000
  28      -0.00000000
  29      -0.08014704
  30      -0.08865034
  31      -0.08865034
  32       0.00000000
  33      -0.00000000
  34       0.00000000
  35       0.12085515
  36       0.30956489
  37      -1.06691788
  38       0.45996457
  39      -0.07207683
  40       0.07742131
  41       0.01125311
  42      -0.01421830
  43      -0.00285326
  44       0.00019979
  45      -0.00299036
  46       0.00000000
  47      -0.00000000
  48      -0.01455075
  49       0.00000000
  50       0.00000000
  51      -0.43760151
  52       0.00000000
  53       0.00000000
  54       0.32017294
  55      -0.00000000
  56       0.00000000
  57      -0.01820932
  58      -0.01534631
  59      -0.01534631
  60       0.00000000
  61       0.00000000
  62       0.00000000
  63      -0.08014704
  64      -0.08865034
  65      -0.08865034
  66      -0.00000000
  67       0.00000000
  68      -0.00000000
Ene=     2.91753E-03
Spin= Alpha
Occup=   0.0000000000
   1      -0.00220223
   2      -0.00417838
   3       0.04399143
   4      -0.06010563
   5       0.72168968
   6       0.02604013
   7       0.07012633
   8      -0.01737994
   9       0.00031584
  10      -0.00015226
  11       0.18071765
  12      -0.00000000
  13       0.00000000
  14       0.15426875
  15      -0.00000000
  16      -0.00000000
  17      -0.79297272
  18      -0.00000000
  19      -0.00000000
  20       0.11346678
  21       0.00000000
  22       0.00000000
  23       3.06614530
  24       3.05632518
  25       3.05632518
  26      -0.00000000
  27       0.00000000
  28      -0.00000000
  29       5.90485929
  30       5.91529071
  31       5.91529071
  32      -0.00000000
  33      -0.00000000
  34       0.00000000
  35       0.00220223
  36       0.00417838
  37      -0.04399143
  38       0.06010563
  39      -0.72168968
  40      -0.02604013
  41      -0.07012633
  42       0.01737994
  43      -0.00031584
  44       0.00015226
  45       0.18071765
  46       0.00000000
  47      -0.00000000
  48       0.15426875
  49       0.00000000
  50       0.00000000
  51      -0.79297272
  52       0.00000000
  53       0.00000000
  54       0.11346678
  55      -0.00000000
  56      -0.00000000
  57      -3.06614530
  58      -3.05632518
  59      -3.05632518
  60      -0.00000000
  61       0.00000000
  62       0.00000000
  63      -5.90485929
  64      -5.91529071
  65      -5.91529071
  66      -0.00000000
  67      -0.00000000
  68      -0.00000000
Ene=     3.39255E-03
Spin= Alpha
Occup=   0.0000000000
   1      -0.00000000
   2      -0.00000000
   3       0.00000000
   4       0.00000000
   5      -0.00000000
   6      -0.00000000
   7      -0.00000000
   8       0.00000000
   9      -0.00000000
  10       0.00000000
  11      -0.00000000
  12      -0.01867179
  13       0.01803562
  14      -0.00000000
  15       0.08429623
  16      -0.08142414
  17      -0.00000000
  18      -0.41197814
  19       0.39794145
  20       0.00000000
  21      -0.00292651
  22       0.00282680
  23       0.00000000
  24       0.00000000
  25       0.00000000
  26      -0.55950948
  27       0.54044619
  28       0.00000000
  29       0.00000000
  30       0.00000000
  31       0.00000000
  32       0.34593874
  33      -0.33415211
  34      -0.00000000
  35       0.00000000
  36       0.00000000
  37      -0.00000000
  38      -0.00000000
  39       0.00000000
  40       0.00000000
  41       0.00000000
  42      -0.00000000
  43      -0.00000000
  44       0.00000000
  45       0.00000000
  46      -0.01867179
  47       0.01803562
  48       0.00000000
  49       0.08429623
  50      -0.08142414
  51       0.00000000
  52      -0.41197814
  53       0.39794145
  54       0.00000000
  55      -0.00292651
  56       0.00282680
  57      -0.00000000
  58      -0.00000000
  59      -0.00000000
  60       0.55950948
  61      -0.54044619
  62      -0.00000000
  63      -0.00000000
  64      -0.00000000
  65      -0.00000000
  66      -0.34593874
  67       0.33415211
  68       0.00000000
Ene=     3.39255E-03
Spin= Alpha
Occup=   0.0000000000
   1       0.00000000
   2      -0.00000000
   3      -0.00000000
   4       0.00000000
   5      -0.00000000
   6       0.00000000
   7       0.00000000
   8      -0.00000000
   9       0.00000000
  10      -0.00000000
  11      -0.00000000
  12       0.01803562
  13       0.01867179
  14       0.00000000
  15      -0.08142414
  16      -0.08429623
  17       0.00000000
  18       0.39794145
  19       0.41197814
  20       0.00000000
  21       0.00282680
  22       0.00292651
  23       0.00000000
  24       0.00000000
  25       0.00000000
  26       0.54044619
  27       0.55950948
  28       0.00000000
  29       0.00000000
  30       0.00000000
  31       0.00000000
  32      -0.33415211
  33      -0.34593874
  34      -0.00000000
  35      -0.00000000
  36       0.00000000
  37       0.00000000
  38      -0.00000000
  39       0.00000000
  40      -0.00000000
  41       0.00000000
  42      -0.00000000
  43      -0.00000000
  44       0.00000000
  45       0.00000000
  46       0.01803562
  47       0.01867179
  48      -0.00000000
  49      -0.08142414
  50      -0.08429623
  51      -0.00000000
  52       0.39794145
  53       0.41197814
  54      -0.00000000
  55       0.00282680
  56       0.00292651
  57      -0.00000000
  58      -0.00000000
  59      -0.00000000
  60      -0.54044619
  61      -0.55950948
  62      -0.00000000
  63      -0.00000000
  64      -0.00000000
  65      -0.00000000
  66       0.33415211
  67       0.34593874
  68       0.00000000
Ene=     6.55936E-03
Spin= Alpha
Occup=   0.0000000000
   1       0.00000000
   2       0.00000000
   3      -0.00000000
   4      -0.00000000
   5       0.00000000
   6      -0.00000000
   7      -0.00000000
   8       0.00000000
   9       0.00000000
  10      -0.00000000
  11       0.00000000
  12      -0.00025540
  13      -0.00005188
  14       0.00000000
  15       0.00067497
  16       0.00013711
  17       0.00000000
  18     -13.85711879
  19      -2.81485997
  20       0.00000000
  21      -2.09430012
  22      -0.42542477
  23       0.00000000
  24       0.00000000
  25       0.00000000
  26       0.03584366
  27       0.00728109
  28      -0.00000000
  29       0.00000000
  30       0.00000000
  31       0.00000000
  32      -0.10605984
  33      -0.02154442
  34      -0.00000000
  35       0.00000000
  36       0.00000000
  37      -0.00000000
  38       0.00000000
  39      -0.00000000
  40       0.00000000
  41       0.00000000
  42      -0.00000000
  43      -0.00000000
  44       0.00000000
  45      -0.00000000
  46       0.00025540
  47       0.00005188
  48      -0.00000000
  49      -0.00067497
  50      -0.00013711
  51      -0.00000000
  52      13.85711879
  53       2.81485997
  54      -0.00000000
  55       2.09430012
  56       0.42542477
  57      -0.00000000
  58      -0.00000000
  59      -0.00000000
  60       0.03584366
  61       0.00728109
  62       0.00000000
  63      -0.00000000
  64      -0.00000000
  65      -0.00000000
  66      -0.10605984
  67      -0.02154442
  68       0.00000000
Ene=     6.55936E-03
Spin= Alpha
Occup=   0.0000000000
   1       0.00000000
   2      -0.00000000
   3      -0.00000000
   4       0.00000000
   5      -0.00000000
   6      -0.00000000
   7       0.00000000
   8      -0.00000000
   9       0.00000000
  10       0.00000000
  11      -0.00000000
  12       0.00005188
  13      -0.00025540
  14       0.00000000
  15      -0.00013711
  16       0.00067497
  17       0.00000000
  18       2.81485997
  19     -13.85711879
  20       0.00000000
  21       0.42542477
  22      -2.09430012
  23      -0.00000000
  24      -0.00000000
  25      -0.00000000
  26      -0.00728109
  27       0.03584366
  28      -0.00000000
  29      -0.00000000
  30      -0.00000000
  31      -0.00000000
  32       0.02154442
  33      -0.10605984
  34      -0.00000000
  35       0.00000000
  36       0.00000000
  37      -0.00000000
  38      -0.00000000
  39      -0.00000000
  40       0.00000000
  41       0.00000000
  42      -0.00000000
  43      -0.00000000
  44       0.00000000
  45       0.00000000
  46      -0.00005188
  47       0.00025540
  48      -0.00000000
  49       0.00013711
  50      -0.00067497
  51      -0.00000000
  52      -2.81485997
  53      13.85711879
  54      -0.00000000
  55      -0.42542477
  56       2.09430012
  57       0.00000000
  58       0.00000000
  59       0.00000000
  60      -0.00728109
  61       0.03584366
  62       0.00000000
  63       0.00000000
  64       0.00000000
  65       0.00000000
  66       0.02154442
  67      -0.10605984
  68       0.00000000
Ene=     6.59749E-03
Spin= Alpha
Occup=   0.0000000000
   1      -0.27416553
   2      -0.58466436
   3       0.56551860
   4       0.42263284
   5       0.02105084
   6      -0.00169617
   7       0.00052901
   8      -0.00024977
   9      -0.00002581
  10      -0.00000529
  11      -0.00719508
  12      -0.00000000
  13      -0.00000000
  14      -0.02676234
  15       0.00000000
  16       0.00000000
  17     -12.00676822
  18      -0.00000000
  19      -0.00000000
  20      -1.97990056
  21      -0.00000000
  22      -0.00000000
  23       0.07404342
  24       0.02086280
  25       0.02086280
  26      -0.00000000
  27       0.00000000
  28      -0.00000000
  29       0.06719777
  30       0.22617692
  31       0.22617692
  32       0.00000000
  33      -0.00000000
  34       0.00000000
  35      -0.27416553
  36      -0.58466436
  37       0.56551860
  38       0.42263284
  39       0.02105084
  40      -0.00169617
  41       0.00052901
  42      -0.00024977
  43      -0.00002581
  44      -0.00000529
  45       0.00719508
  46       0.00000000
  47       0.00000000
  48       0.02676234
  49      -0.00000000
  50      -0.00000000
  51      12.00676822
  52       0.00000000
  53       0.00000000
  54       1.97990056
  55       0.00000000
  56       0.00000000
  57       0.07404342
  58       0.02086280
  59       0.02086280
  60       0.00000000
  61      -0.00000000
  62       0.00000000
  63       0.06719777
  64       0.22617692
  65       0.22617692
  66      -0.00000000
  67      -0.00000000
  68      -0.00000000
Ene=     7.41838E-03
Spin= Alpha
Occup=   0.0000000000
   1      -0.00175260
   2      -0.00364158
   3       0.03919086
   4      -0.08478898
   5      -0.01869172
   6      -0.49415524
   7      -0.15216774
   8       0.04093674
   9       0.00234200
  10      -0.00012323
  11       0.14385135
  12      -0.00000000
  13       0.00000000
  14       0.13800713
  15      -0.00000000
  16      -0.00000000
  17      -0.74681450
  18       0.00000000
  19       0.00000000
  20       0.70958309
  21       0.00000000
  22       0.00000000
  23       2.43534426
  24       2.42573057
  25       2.42573057
  26      -0.00000000
  27       0.00000000
  28      -0.00000000
  29       4.82306400
  30       4.83346764
  31       4.83346764
  32      -0.00000000
  33      -0.00000000
  34       0.00000000
  35       0.00175260
  36       0.00364158
  37      -0.03919086
  38       0.08478898
  39       0.01869172
  40       0.49415524
  41       0.15216774
  42      -0.04093674
  43      -0.00234200
  44       0.00012323
  45       0.14385135
  46       0.00000000
  47      -0.00000000
  48       0.13800713
  49       0.00000000
  50       0.00000000
  51      -0.74681450
  52      -0.00000000
  53      -0.00000000
  54       0.70958309
  55      -0.00000000
  56      -0.00000000
  57      -2.43534426
  58      -2.42573057
  59      -2.42573057
  60      -0.00000000
  61       0.00000000
  62       0.00000000
  63      -4.82306400
  64      -4.83346764
  65      -4.83346764
  66      -0.00000000
  67      -0.00000000
  68      -0.00000000
Ene=     8.23735E-03
Spin= Alpha
Occup=   0.0000000000
   1       0.07754729
   2      -0.14788887
   3       0.89505428
   4      -1.46253506
   5       0.60750880
   6      -0.04505694
   7       0.10491408
   8      -0.05918625
   9       0.00003251
  10      -0.00070439
  11       0.00189066
  12      -0.00000000
  13      -0.00000000
  14      -0.00527984
  15       0.00000000
  16       0.00000000
  17      -1.41293353
  18      -0.00000000
  19       0.00000000
  20       1.05972586
  21       0.00000000
  22       0.00000000
  23      -0.00778700
  24      -0.01581376
  25      -0.01581376
  26      -0.00000000
  27       0.00000000
  28      -0.00000000
  29      -0.01972049
  30       0.00270805
  31       0.00270805
  32       0.00000000
  33      -0.00000000
  34      -0.00000000
  35       0.07754729
  36      -0.14788887
  37       0.89505428
  38      -1.46253506
  39       0.60750880
  40      -0.04505694
  41       0.10491408
  42      -0.05918625
  43       0.00003251
  44      -0.00070439
  45      -0.00189066
  46       0.00000000
  47       0.00000000
  48       0.00527984
  49      -0.00000000
  50      -0.00000000
  51       1.41293353
  52       0.00000000
  53      -0.00000000
  54      -1.05972586
  55      -0.00000000
  56      -0.00000000
  57      -0.00778700
  58      -0.01581376
  59      -0.01581376
  60       0.00000000
  61      -0.00000000
  62       0.00000000
  63      -0.01972049
  64       0.00270805
  65       0.00270805
  66      -0.00000000
  67       0.00000000
  68       0.00000000
Ene=     8.67431E-03
Spin= Alpha
Occup=   0.0000000000
   1       0.00000000
   2       0.00000000
   3      -0.00000000
   4      -0.00000000
   5       0.00000000
   6      -0.00000000
   7      -0.00000000
   8       0.00000000
   9      -0.00000000
  10       0.00000000
  11       0.00000000
  12       0.02345318
  13       0.00095642
  14       0.00000000
  15      -0.10802319
  16      -0.00440518
  17       0.00000000
  18       0.61252755
  19       0.02497883
  20      -0.00000000
  21      -0.73365331
  22      -0.02991833
  23       0.00000000
  24       0.00000000
  25       0.00000000
  26       0.67044245
  27       0.02734060
  28      -0.00000000
  29       0.00000000
  30       0.00000000
  31       0.00000000
  32      -0.40984419
  33      -0.01671342
  34      -0.00000000
  35      -0.00000000
  36      -0.00000000
  37       0.00000000
  38       0.00000000
  39      -0.00000000
  40       0.00000000
  41      -0.00000000
  42       0.00000000
  43      -0.00000000
  44      -0.00000000
  45      -0.00000000
  46       0.02345318
  47       0.00095642
  48      -0.00000000
  49      -0.10802319
  50      -0.00440518
  51      -0.00000000
  52       0.61252755
  53       0.02497883
  54       0.00000000
  55      -0.73365331
  56      -0.02991833
  57      -0.00000000
  58      -0.00000000
  59      -0.00000000
  60      -0.67044245
  61      -0.02734060
  62       0.00000000
  63      -0.00000000
  64      -0.00000000
  65      -0.00000000
  66       0.40984419
  67       0.01671342
  68       0.00000000
Ene=     8.67431E-03
Spin= Alpha
Occup=   0.0000000000
   1      -0.00000000
   2       0.00000000
   3       0.00000000
   4      -0.00000000
   5       0.00000000
   6      -0.00000000
   7       0.00000000
   8      -0.00000000
   9      -0.00000000
  10       0.00000000
  11       0.00000000
  12       0.00095642
  13      -0.02345318
  14       0.00000000
  15      -0.00440518
  16       0.10802319
  17      -0.00000000
  18       0.02497883
  19      -0.61252755
  20      -0.00000000
  21      -0.02991833
  22       0.73365331
  23      -0.00000000
  24      -0.00000000
  25      -0.00000000
  26       0.02734060
  27      -0.67044245
  28      -0.00000000
  29      -0.00000000
  30      -0.00000000
  31      -0.00000000
  32      -0.01671342
  33       0.40984419
  34       0.00000000
  35       0.00000000
  36      -0.00000000
  37      -0.00000000
  38       0.00000000
  39       0.00000000
  40      -0.00000000
  41       0.00000000
  42      -0.00000000
  43      -0.00000000
  44      -0.00000000
  45      -0.00000000
  46       0.00095642
  47      -0.02345318
  48      -0.00000000
  49      -0.00440518
  50       0.10802319
  51       0.00000000
  52       0.02497883
  53      -0.61252755
  54       0.00000000
  55      -0.02991833
  56       0.73365331
  57       0.00000000
  58       0.00000000
  59       0.00000000
  60      -0.02734060
  61       0.67044245
  62       0.00000000
  63       0.00000000
  64       0.00000000
  65       0.00000000
  66       0.01671342
  67      -0.40984419
  68      -0.00000000
Ene=     1.44388E-02
Spin= Alpha
Occup=   0.0000000000
   1      -0.00000000
   2      -0.00000000
   3       0.00000000
   4      -0.00000000
   5       0.00000000
   6       0.00000000
   7      -0.00000000
   8       0.00000000
   9      -0.00000000
  10       0.00000000
  11       0.00000000
  12      -0.00017591
  13      -0.00006719
  14       0.00000000
  15       0.00014549
  16       0.00005558
  17      -0.00000000
  18     -15.72292828
  19      -6.00586770
  20       0.00000000
  21      10.40410635
  22       3.97417613
  23       0.00000000
  24       0.00000000
  25       0.00000000
  26       0.03260176
  27       0.01245327
  28       0.00000000
  29       0.00000000
  30       0.00000000
  31       0.00000000
  32      -0.09859190
  33      -0.03766028
  34      -0.00000000
  35      -0.00000000
  36      -0.00000000
  37       0.00000000
  38       0.00000000
  39      -0.00000000
  40       0.00000000
  41      -0.00000000
  42       0.00000000
  43      -0.00000000
  44       0.00000000
  45      -0.00000000
  46       0.00017591
  47       0.00006719
  48      -0.00000000
  49      -0.00014549
  50      -0.00005558
  51       0.00000000
  52      15.72292828
  53       6.00586770
  54      -0.00000000
  55     -10.40410635
  56      -3.97417613
  57      -0.00000000
  58      -0.00000000
  59      -0.00000000
  60       0.03260176
  61       0.01245327
  62      -0.00000000
  63      -0.00000000
  64      -0.00000000
  65      -0.00000000
  66      -0.09859190
  67      -0.03766028
  68       0.00000000
Ene=     1.44388E-02
Spin= Alpha
Occup=   0.0000000000
   1       0.00000000
   2       0.00000000
   3       0.00000000
   4      -0.00000000
   5      -0.00000000
   6       0.00000000
   7      -0.00000000
   8       0.00000000
   9      -0.00000000
  10       0.00000000
  11       0.00000000
  12      -0.00006719
  13       0.00017591
  14       0.00000000
  15       0.00005558
  16      -0.00014549
  17      -0.00000000
  18      -6.00586770
  19      15.72292828
  20       0.00000000
  21       3.97417613
  22     -10.40410635
  23       0.00000000
  24       0.00000000
  25       0.00000000
  26       0.01245327
  27      -0.03260176
  28       0.00000000
  29       0.00000000
  30       0.00000000
  31       0.00000000
  32      -0.03766028
  33       0.09859190
  34       0.00000000
  35      -0.00000000
  36      -0.00000000
  37       0.00000000
  38       0.00000000
  39      -0.00000000
  40       0.00000000
  41      -0.00000000
  42       0.00000000
  43      -0.00000000
  44       0.00000000
  45      -0.00000000
  46       0.00006719
  47      -0.00017591
  48      -0.00000000
  49      -0.00005558
  50       0.00014549
  51       0.00000000
  52       6.00586770
  53     -15.72292828
  54      -0.00000000
  55      -3.97417613
  56      10.40410635
  57      -0.00000000
  58      -0.00000000
  59      -0.00000000
  60       0.01245327
  61      -0.03260176
  62      -0.00000000
  63      -0.00000000
  64      -0.00000000
  65      -0.00000000
  66      -0.03766028
  67       0.09859190
  68      -0.00000000
Ene=     1.48987E-02
Spin= Alpha
Occup=   0.0000000000
   1       0.50059623
   2       0.89582894
   3      -1.30587144
   4       0.08088894
   5       0.55908832
   6      -0.08989721
   7       0.05254190
   8      -0.02385039
   9       0.00182232
  10      -0.00053183
  11       0.01264630
  12       0.00000000
  13       0.00000000
  14       0.04352008
  15      -0.00000000
  16      -0.00000000
  17      13.92510604
  18      -0.00000000
  19       0.00000000
  20      -9.17139316
  21       0.00000000
  22      -0.00000000
  23      -0.10341272
  24      -0.05623957
  25      -0.05623957
  26       0.00000000
  27      -0.00000000
  28      -0.00000000
  29      -0.19426141
  30      -0.34083361
  31      -0.34083361
  32      -0.00000000
  33      -0.00000000
  34       0.00000000
  35       0.50059623
  36       0.89582894
  37      -1.30587144
  38       0.08088894
  39       0.55908832
  40      -0.08989721
  41       0.05254190
  42      -0.02385039
  43       0.00182232
  44      -0.00053183
  45      -0.01264630
  46      -0.00000000
  47      -0.00000000
  48      -0.04352008
  49       0.00000000
  50       0.00000000
  51     -13.92510604
  52       0.00000000
  53      -0.00000000
  54       9.17139316
  55      -0.00000000
  56       0.00000000
  57      -0.10341272
  58      -0.05623957
  59      -0.05623957
  60      -0.00000000
  61       0.00000000
  62       0.00000000
  63      -0.19426141
  64      -0.34083361
  65      -0.34083361
  66       0.00000000
  67       0.00000000
  68      -0.00000000
Ene=     1.84906E-02
Spin= Alpha
Occup=   0.0000000000
   1      -0.00146082
   2      -0.00014549
   3      -0.00048478
   4       0.00898909
   5      -6.04385980
   6      -0.40259533
   7      -0.37843175
   8       0.09366784
   9       0.00072973
  10       0.00044919
  11       0.11868579
  12      -0.00000000
  13       0.00000000
  14      -0.02242405
  15      -0.00000000
  16      -0.00000000
  17       0.28705100
  18       0.00000000
  19       0.00000000
  20      -0.77541167
  21      -0.00000000
  22      -0.00000000
  23       2.22131435
  24       2.22919521
  25       2.22919521
  26       0.00000000
  27       0.00000000
  28      -0.00000000
  29       2.73091847
  30       2.72067878
  31       2.72067878
  32      -0.00000000
  33      -0.00000000
  34       0.00000000
  35       0.00146082
  36       0.00014549
  37       0.00048478
  38      -0.00898909
  39       6.04385980
  40       0.40259533
  41       0.37843175
  42      -0.09366784
  43      -0.00072973
  44      -0.00044919
  45       0.11868579
  46       0.00000000
  47      -0.00000000
  48      -0.02242405
  49       0.00000000
  50       0.00000000
  51       0.28705100
  52      -0.00000000
  53      -0.00000000
  54      -0.77541167
  55       0.00000000
  56       0.00000000
  57      -2.22131435
  58      -2.22919521
  59      -2.22919521
  60      -0.00000000
  61       0.00000000
  62       0.00000000
  63      -2.73091847
  64      -2.72067878
  65      -2.72067878
  66      -0.00000000
  67      -0.00000000
  68      -0.00000000
Ene=     2.48864E-02
Spin= Alpha
Occup=   0.0000000000
   1      -2.94865619
   2      -3.01026184
   3       3.83967642
   4      -1.45842462
   5       0.09122611
   6       0.14250824
   7       0.02389419
   8      -0.02641915
   9      -0.00456974
  10       0.00027410
  11      -0.07306915
  12       0.00000000
  13      -0.00000000
  14      -0.16208228
  15       0.00000000
  16       0.00000000
  17      -2.52914862
  18      -0.00000000
  19       0.00000000
  20       1.67149365
  21      -0.00000000
  22      -0.00000000
  23       0.43575736
  24       0.44730052
  25       0.44730052
  26       0.00000000
  27      -0.00000000
  28       0.00000000
  29       1.41257274
  30       1.40184706
  31       1.40184706
  32      -0.00000000
  33       0.00000000
  34      -0.00000000
  35      -2.94865619
  36      -3.01026184
  37       3.83967642
  38      -1.45842462
  39       0.09122611
  40       0.14250824
  41       0.02389419
  42      -0.02641915
  43      -0.00456974
  44       0.00027410
  45       0.07306915
  46      -0.00000000
  47       0.00000000
  48       0.16208228
  49      -0.00000000
  50      -0.00000000
  51       2.52914862
  52       0.00000000
  53      -0.00000000
  54      -1.67149365
  55       0.00000000
  56       0.00000000
  57       0.43575736
  58       0.44730052
  59       0.44730052
  60      -0.00000000
  61       0.00000000
  62      -0.00000000
  63       1.41257274
  64       1.40184706
  65       1.40184706
  66       0.00000000
  67      -0.00000000
  68       0.00000000
Ene=     3.35952E-02
Spin= Alpha
Occup=   0.0000000000
   1       0.02101492
   2       0.01837899
   3      -0.20108826
   4       0.49205900
   5      -1.05984179
   6      -0.73314439
   7      -0.08758602
   8       0.02563656
   9       0.00428879
  10      -0.00050521
  11      -1.69813484
  12       0.00000000
  13      -0.00000000
  14      -0.47302616
  15       0.00000000
  16       0.00000000
  17       1.83835117
  18      -0.00000000
  19      -0.00000000
  20      -0.65216591
  21       0.00000000
  22       0.00000000
  23     -33.41120095
  24     -33.40713272
  25     -33.40713272
  26       0.00000000
  27       0.00000000
  28       0.00000000
  29     -44.64561801
  30     -44.63459777
  31     -44.63459777
  32      -0.00000000
  33       0.00000000
  34      -0.00000000
  35      -0.02101492
  36      -0.01837899
  37       0.20108826
  38      -0.49205900
  39       1.05984179
  40       0.73314439
  41       0.08758602
  42      -0.02563656
  43      -0.00428879
  44       0.00050521
  45      -1.69813484
  46      -0.00000000
  47       0.00000000
  48      -0.47302616
  49      -0.00000000
  50      -0.00000000
  51       1.83835117
  52       0.00000000
  53       0.00000000
  54      -0.65216591
  55      -0.00000000
  56      -0.00000000
  57      33.41120095
  58      33.40713272
  59      33.40713272
  60      -0.00000000
  61      -0.00000000
  62      -0.00000000
  63      44.64561801
  64      44.63459777
  65      44.63459777
  66       0.00000000
  67       0.00000000
  68       0.00000000
Ene=     3.69721E-02
Spin= Alpha
Occup=   0.0000000000
   1      -0.00000000
   2      -0.00000000
   3      -0.00000000
   4       0.00000000
   5      -0.00000000
   6      -0.00000000
   7      -0.00000000
   8       0.00000000
   9       0.00000000
  10      -0.00000000
  11      -0.00000000
  12      -0.00000000