[Molden Format]
[Title]
 Molden2AIM, Version 3.1.0 (02/25/2015)           Time: Thu Oct 17 19:56:05 2024

[Atoms] AU
E+       1       4     0.00000000     0.00000000     0.00000000
E+       2       4    54.60000000     0.00000000     0.00000000
[GTO]
    1 0
 S   1 1.0
    0.1000000000D-03      0.1000000000D+01
 S   1 1.0
    0.3000000000D-03      0.1000000000D+01
 S   1 1.0
    0.9000000000D-03      0.1000000000D+01
 S   1 1.0
    0.2700000000D-02      0.1000000000D+01
 S   1 1.0
    0.8100000000D-02      0.1000000000D+01
 S   1 1.0
    0.2430000000D-01      0.1000000000D+01
 S   1 1.0
    0.7290000000D-01      0.1000000000D+01
 S   1 1.0
    0.2187000000D+00      0.1000000000D+01
 S   1 1.0
    0.6561000000D+00      0.1000000000D+01
 S   1 1.0
    0.1968300000D+01      0.1000000000D+01
 P   1 1.0
    0.1000000000D-03      0.1000000000D+01
 P   1 1.0
    0.3000000000D-03      0.1000000000D+01
 P   1 1.0
    0.9000000000D-03      0.1000000000D+01
 P   1 1.0
    0.2700000000D-02      0.1000000000D+01
 D   1 1.0
    0.1000000000D-03      0.1000000000D+01
 D   1 1.0
    0.3000000000D-03      0.1000000000D+01

    2 0
 S   1 1.0
    0.1000000000D-03      0.1000000000D+01
 S   1 1.0
    0.3000000000D-03      0.1000000000D+01
 S   1 1.0
    0.9000000000D-03      0.1000000000D+01
 S   1 1.0
    0.2700000000D-02      0.1000000000D+01
 S   1 1.0
    0.8100000000D-02      0.1000000000D+01
 S   1 1.0
    0.2430000000D-01      0.1000000000D+01
 S   1 1.0
    0.7290000000D-01      0.1000000000D+01
 S   1 1.0
    0.2187000000D+00      0.1000000000D+01
 S   1 1.0
    0.6561000000D+00      0.1000000000D+01
 S   1 1.0
    0.1968300000D+01      0.1000000000D+01
 P   1 1.0
    0.1000000000D-03      0.1000000000D+01
 P   1 1.0
    0.3000000000D-03      0.1000000000D+01
 P   1 1.0
    0.9000000000D-03      0.1000000000D+01
 P   1 1.0
    0.2700000000D-02      0.1000000000D+01
 D   1 1.0
    0.1000000000D-03      0.1000000000D+01
 D   1 1.0
    0.3000000000D-03      0.1000000000D+01


[MO]
 Ene=          0.00285218
 Spin= Alpha
 Occup=        1.00000000
    1       -0.2872071300
    2       -0.1637430300
    3        0.4591041100
    4        0.0714500700
    5        0.1521166300
    6        0.1235471900
    7        0.0782631100
    8       -0.0630960700
    9       -0.0042565000
   10        0.0000541800
   11        0.2678852600
   12       -0.0000000000
   13        0.0000000000
   14       -0.0922105300
   15       -0.0000000000
   16        0.0000000000
   17        0.1626818900
   18        0.0000000000
   19       -0.0000000000
   20        0.1855122600
   21       -0.0000000000
   22        0.0000000000
   23        0.1445924100
   24        0.0209861200
   25        0.0209861200
   26       -0.0000000000
   27        0.0000000000
   28        0.0000000000
   29        0.0622186500
   30        0.0712580400
   31        0.0712580400
   32       -0.0000000000
   33        0.0000000000
   34       -0.0000000000
   35       -0.2872071300
   36       -0.1637430300
   37        0.4591041100
   38        0.0714500700
   39        0.1521166300
   40        0.1235471900
   41        0.0782631100
   42       -0.0630960700
   43       -0.0042565000
   44        0.0000541800
   45       -0.2678852600
   46        0.0000000000
   47       -0.0000000000
   48        0.0922105300
   49        0.0000000000
   50       -0.0000000000
   51       -0.1626818900
   52       -0.0000000000
   53        0.0000000000
   54       -0.1855122600
   55        0.0000000000
   56       -0.0000000000
   57        0.1445924100
   58        0.0209861200
   59        0.0209861200
   60       -0.0000000000
   61        0.0000000000
   62       -0.0000000000
   63        0.0622186500
   64        0.0712580400
   65        0.0712580400
   66       -0.0000000000
   67        0.0000000000
   68        0.0000000000
 Ene=          0.00387336
 Spin= Alpha
 Occup=        0.00000000
    1        0.0206138200
    2       -1.1364310200
    3       -0.0118616700
    4       -0.3960692800
    5       -0.1421398400
    6       -0.1957464500
    7       -0.0991801300
    8        0.0841054600
    9        0.0064341600
   10       -0.0001803400
   11       -0.0304181800
   12       -0.0000000000
   13       -0.0000000000
   14       -0.6936058700
   15        0.0000000000
   16        0.0000000000
   17        0.1303344800
   18       -0.0000000000
   19       -0.0000000000
   20       -0.2819377000
   21        0.0000000000
   22        0.0000000000
   23       -0.0245720500
   24       -0.0206348200
   25       -0.0206348200
   26       -0.0000000000
   27        0.0000000000
   28       -0.0000000000
   29       -0.2497584600
   30       -0.0567316700
   31       -0.0567316700
   32       -0.0000000000
   33        0.0000000000
   34       -0.0000000000
   35       -0.0206138200
   36        1.1364310200
   37        0.0118616700
   38        0.3960692800
   39        0.1421398400
   40        0.1957464500
   41        0.0991801300
   42       -0.0841054600
   43       -0.0064341600
   44        0.0001803400
   45       -0.0304181800
   46        0.0000000000
   47        0.0000000000
   48       -0.6936058700
   49        0.0000000000
   50       -0.0000000000
   51        0.1303344800
   52       -0.0000000000
   53        0.0000000000
   54       -0.2819377000
   55        0.0000000000
   56       -0.0000000000
   57        0.0245720500
   58        0.0206348200
   59        0.0206348200
   60       -0.0000000000
   61       -0.0000000000
   62        0.0000000000
   63        0.2497584600
   64        0.0567316700
   65        0.0567316700
   66       -0.0000000000
   67        0.0000000000
   68       -0.0000000000
 Ene=          0.00671097
 Spin= Alpha
 Occup=        0.00000000
    1        0.5568551200
    2        0.1393161000
    3       -0.8679908700
    4        0.7111567400
    5        0.0799289200
    6        0.1936441400
    7        0.0764262900
    8       -0.0692219200
    9       -0.0060753800
   10        0.0002574200
   11       -0.7545337600
   12       -0.0000000000
   13        0.0000000000
   14        0.2818030000
   15        0.0000000000
   16       -0.0000000000
   17       -0.5336137800
   18        0.0000000000
   19       -0.0000000000
   20        0.2178412800
   21       -0.0000000000
   22        0.0000000000
   23       -0.3774043900
   24       -0.0218060200
   25       -0.0218060200
   26       -0.0000000000
   27        0.0000000000
   28        0.0000000000
   29       -0.0130353700
   30       -0.0708651400
   31       -0.0708651400
   32        0.0000000000
   33       -0.0000000000
   34        0.0000000000
   35        0.5568551200
   36        0.1393161000
   37       -0.8679908700
   38        0.7111567400
   39        0.0799289200
   40        0.1936441400
   41        0.0764262900
   42       -0.0692219200
   43       -0.0060753800
   44        0.0002574200
   45        0.7545337600
   46        0.0000000000
   47       -0.0000000000
   48       -0.2818030000
   49       -0.0000000000
   50        0.0000000000
   51        0.5336137800
   52        0.0000000000
   53       -0.0000000000
   54       -0.2178412800
   55       -0.0000000000
   56        0.0000000000
   57       -0.3774043900
   58       -0.0218060200
   59       -0.0218060200
   60       -0.0000000000
   61        0.0000000000
   62        0.0000000000
   63       -0.0130353700
   64       -0.0708651400
   65       -0.0708651400
   66        0.0000000000
   67       -0.0000000000
   68       -0.0000000000
 Ene=          0.01310000
 Spin= Alpha
 Occup=        0.00000000
    1        0.0075717800
    2        2.7227243200
    3       -0.8502454800
    4       -0.2495136300
    5        0.5947622300
    6        0.0842007900
    7        0.1083381100
    8       -0.0777355200
    9       -0.0037109600
   10       -0.0001635200
   11       -0.1034138600
   12        0.0000000000
   13       -0.0000000000
   14        1.4262121600
   15       -0.0000000000
   16        0.0000000000
   17       -0.2518595800
   18       -0.0000000000
   19       -0.0000000000
   20       -0.4141681900
   21       -0.0000000000
   22        0.0000000000
   23       -0.0885692100
   24       -0.0692157900
   25       -0.0692157900
   26        0.0000000000
   27       -0.0000000000
   28        0.0000000000
   29        0.2693574100
   30       -0.1281960900
   31       -0.1281960900
   32       -0.0000000000
   33        0.0000000000
   34       -0.0000000000
   35       -0.0075717800
   36       -2.7227243200
   37        0.8502454800
   38        0.2495136300
   39       -0.5947622300
   40       -0.0842007900
   41       -0.1083381100
   42        0.0777355200
   43        0.0037109600
   44        0.0001635200
   45       -0.1034138600
   46       -0.0000000000
   47        0.0000000000
   48        1.4262121600
   49        0.0000000000
   50       -0.0000000000
   51       -0.2518595800
   52        0.0000000000
   53        0.0000000000
   54       -0.4141681900
   55       -0.0000000000
   56        0.0000000000
   57        0.0885692100
   58        0.0692157900
   59        0.0692157900
   60        0.0000000000
   61       -0.0000000000
   62       -0.0000000000
   63       -0.2693574100
   64        0.1281960900
   65        0.1281960900
   66       -0.0000000000
   67        0.0000000000
   68        0.0000000000
 Ene=          0.01488440
 Spin= Alpha
 Occup=        0.00000000
    1       -0.0000000000
    2       -0.0000000000
    3       -0.0000000000
    4       -0.0000000000
    5        0.0000000000
    6        0.0000000000
    7        0.0000000000
    8       -0.0000000000
    9       -0.0000000000
   10       -0.0000000000
   11        0.0000000000
   12       -0.0309404400
   13        0.0511016500
   14       -0.0000000000
   15        0.0795665700
   16       -0.1314132400
   17        0.0000000000
   18       -0.2817307200
   19        0.4653103200
   20       -0.0000000000
   21       -0.1063008500
   22        0.1755679500
   23       -0.0000000000
   24       -0.0000000000
   25       -0.0000000000
   26        0.0356136600
   27       -0.0588200100
   28        0.0000000000
   29       -0.0000000000
   30       -0.0000000000
   31       -0.0000000000
   32       -0.0582493800
   33        0.0962054800
   34       -0.0000000000
   35       -0.0000000000
   36        0.0000000000
   37       -0.0000000000
   38       -0.0000000000
   39        0.0000000000
   40        0.0000000000
   41        0.0000000000
   42       -0.0000000000
   43       -0.0000000000
   44        0.0000000000
   45       -0.0000000000
   46       -0.0309404400
   47        0.0511016500
   48       -0.0000000000
   49        0.0795665700
   50       -0.1314132400
   51       -0.0000000000
   52       -0.2817307200
   53        0.4653103200
   54        0.0000000000
   55       -0.1063008500
   56        0.1755679500
   57        0.0000000000
   58        0.0000000000
   59        0.0000000000
   60       -0.0356136600
   61        0.0588200100
   62       -0.0000000000
   63        0.0000000000
   64       -0.0000000000
   65       -0.0000000000
   66        0.0582493800
   67       -0.0962054800
   68        0.0000000000
 Ene=          0.01488440
 Spin= Alpha
 Occup=        0.00000000
    1        0.0000000000
    2        0.0000000000
    3       -0.0000000000
    4       -0.0000000000
    5        0.0000000000
    6       -0.0000000000
    7        0.0000000000
    8       -0.0000000000
    9       -0.0000000000
   10        0.0000000000
   11       -0.0000000000
   12        0.0511016500
   13        0.0309404400
   14        0.0000000000
   15       -0.1314132400
   16       -0.0795665700
   17       -0.0000000000
   18        0.4653103200
   19        0.2817307200
   20       -0.0000000000
   21        0.1755679500
   22        0.1063008500
   23       -0.0000000000
   24        0.0000000000
   25        0.0000000000
   26       -0.0588200100
   27       -0.0356136600
   28       -0.0000000000
   29        0.0000000000
   30       -0.0000000000
   31       -0.0000000000
   32        0.0962054800
   33        0.0582493800
   34        0.0000000000
   35        0.0000000000
   36       -0.0000000000
   37        0.0000000000
   38       -0.0000000000
   39        0.0000000000
   40       -0.0000000000
   41        0.0000000000
   42       -0.0000000000
   43        0.0000000000
   44        0.0000000000
   45        0.0000000000
   46        0.0511016500
   47        0.0309404400
   48        0.0000000000
   49       -0.1314132400
   50       -0.0795665700
   51       -0.0000000000
   52        0.4653103200
   53        0.2817307200
   54        0.0000000000
   55        0.1755679500
   56        0.1063008500
   57       -0.0000000000
   58       -0.0000000000
   59       -0.0000000000
   60        0.0588200100
   61        0.0356136600
   62       -0.0000000000
   63       -0.0000000000
   64       -0.0000000000
   65       -0.0000000000
   66       -0.0962054800
   67       -0.0582493800
   68        0.0000000000
 Ene=          0.01524250
 Spin= Alpha
 Occup=        0.00000000
    1        0.4168249800
    2        0.4014323500
    3        0.0663336300
    4       -1.2033723800
    5        0.8426322300
    6       -0.0127133800
    7        0.1132487500
    8       -0.0707571400
    9       -0.0013556200
   10       -0.0004392900
   11        0.3887482500
   12        0.0000000000
   13       -0.0000000000
   14       -0.0686220600
   15        0.0000000000
   16       -0.0000000000
   17        0.5519154700
   18       -0.0000000000
   19       -0.0000000000
   20       -0.7981758900
   21        0.0000000000
   22       -0.0000000000
   23        0.0863328800
   24       -0.0903276000
   25       -0.0903276000
   26        0.0000000000
   27       -0.0000000000
   28       -0.0000000000
   29       -0.2247649700
   30       -0.2891254700
   31       -0.2891254700
   32        0.0000000000
   33       -0.0000000000
   34        0.0000000000
   35        0.4168249800
   36        0.4014323500
   37        0.0663336300
   38       -1.2033723800
   39        0.8426322300
   40       -0.0127133800
   41        0.1132487500
   42       -0.0707571400
   43       -0.0013556200
   44       -0.0004392900
   45       -0.3887482500
   46       -0.0000000000
   47        0.0000000000
   48        0.0686220600
   49       -0.0000000000
   50        0.0000000000
   51       -0.5519154700
   52       -0.0000000000
   53       -0.0000000000
   54        0.7981758900
   55       -0.0000000000
   56       -0.0000000000
   57        0.0863328800
   58       -0.0903276000
   59       -0.0903276000
   60        0.0000000000
   61       -0.0000000000
   62        0.0000000000
   63       -0.2247649700
   64       -0.2891254700
   65       -0.2891254700
   66        0.0000000000
   67       -0.0000000000
   68       -0.0000000000
 Ene=          0.01734940
 Spin= Alpha
 Occup=        0.00000000
    1       -0.0000000000
    2       -0.0000000000
    3        0.0000000000
    4       -0.0000000000
    5        0.0000000000
    6       -0.0000000000
    7        0.0000000000
    8       -0.0000000000
    9       -0.0000000000
   10        0.0000000000
   11        0.0000000000
   12        0.0280458600
   13       -0.0611627100
   14       -0.0000000000
   15        0.0123741200
   16       -0.0269856200
   17        0.0000000000
   18        0.0276788400
   19       -0.0603623000
   20       -0.0000000000
   21        0.2814791300
   22       -0.6138526800
   23        0.0000000000
   24       -0.0000000000
   25       -0.0000000000
   26        0.0040645000
   27       -0.0088639100
   28        0.0000000000
   29       -0.0000000000
   30       -0.0000000000
   31       -0.0000000000
   32        0.0171991800
   33       -0.0375081500
   34       -0.0000000000
   35       -0.0000000000
   36        0.0000000000
   37       -0.0000000000
   38        0.0000000000
   39       -0.0000000000
   40        0.0000000000
   41       -0.0000000000
   42        0.0000000000
   43       -0.0000000000
   44       -0.0000000000
   45       -0.0000000000
   46       -0.0280458600
   47        0.0611627100
   48       -0.0000000000
   49       -0.0123741200
   50        0.0269856200
   51        0.0000000000
   52       -0.0276788400
   53        0.0603623000
   54       -0.0000000000
   55       -0.2814791300
   56        0.6138526800
   57        0.0000000000
   58        0.0000000000
   59        0.0000000000
   60        0.0040645000
   61       -0.0088639100
   62       -0.0000000000
   63        0.0000000000
   64        0.0000000000
   65        0.0000000000
   66        0.0171991800
   67       -0.0375081500
   68       -0.0000000000
 Ene=          0.01734940
 Spin= Alpha
 Occup=        0.00000000
    1       -0.0000000000
    2       -0.0000000000
    3        0.0000000000
    4        0.0000000000
    5       -0.0000000000
    6        0.0000000000
    7       -0.0000000000
    8        0.0000000000
    9        0.0000000000
   10       -0.0000000000
   11       -0.0000000000
   12        0.0611627100
   13        0.0280458600
   14       -0.0000000000
   15        0.0269856200
   16        0.0123741200
   17        0.0000000000
   18        0.0603623000
   19        0.0276788400
   20        0.0000000000
   21        0.6138526800
   22        0.2814791300
   23       -0.0000000000
   24       -0.0000000000
   25       -0.0000000000
   26        0.0088639100
   27        0.0040645000
   28       -0.0000000000
   29       -0.0000000000
   30       -0.0000000000
   31       -0.0000000000
   32        0.0375081500
   33        0.0171991800
   34        0.0000000000
   35       -0.0000000000
   36        0.0000000000
   37        0.0000000000
   38        0.0000000000
   39       -0.0000000000
   40        0.0000000000
   41       -0.0000000000
   42        0.0000000000
   43       -0.0000000000
   44        0.0000000000
   45       -0.0000000000
   46       -0.0611627100
   47       -0.0280458600
   48       -0.0000000000
   49       -0.0269856200
   50       -0.0123741200
   51        0.0000000000
   52       -0.0603623000
   53       -0.0276788400
   54       -0.0000000000
   55       -0.6138526800
   56       -0.2814791300
   57        0.0000000000
   58        0.0000000000
   59        0.0000000000
   60        0.0088639100
   61        0.0040645000
   62       -0.0000000000
   63        0.0000000000
   64        0.0000000000
   65        0.0000000000
   66        0.0375081500
   67        0.0171991800
   68        0.0000000000
 Ene=          0.01967370
 Spin= Alpha
 Occup=        0.00000000
    1       -0.0880576500
    2       10.7620892200
    3       -2.5416759200
    4        1.7379977600
    5       -0.6353196400
    6        0.0656592000
    7       -0.0599931100
    8        0.0316149600
    9       -0.0006376100
   10        0.0003743100
   11       -0.0491926800
   12        0.0000000000
   13       -0.0000000000
   14        6.1315272800
   15       -0.0000000000
   16        0.0000000000
   17       -1.5859832400
   18        0.0000000000
   19       -0.0000000000
   20        0.6901319600
   21       -0.0000000000
   22        0.0000000000
   23       -0.0319262600
   24       -0.0389952100
   25       -0.0389952100
   26        0.0000000000
   27       -0.0000000000
   28        0.0000000000
   29        1.7181146700
   30        0.0561725600
   31        0.0561725600
   32       -0.0000000000
   33        0.0000000000
   34       -0.0000000000
   35        0.0880576500
   36      -10.7620892200
   37        2.5416759200
   38       -1.7379977600
   39        0.6353196400
   40       -0.0656592000
   41        0.0599931100
   42       -0.0316149600
   43        0.0006376100
   44       -0.0003743100
   45       -0.0491926800
   46       -0.0000000000
   47        0.0000000000
   48        6.1315272800
   49        0.0000000000
   50       -0.0000000000
   51       -1.5859832400
   52        0.0000000000
   53        0.0000000000
   54        0.6901319600
   55       -0.0000000000
   56        0.0000000000
   57        0.0319262600
   58        0.0389952100
   59        0.0389952100
   60        0.0000000000
   61       -0.0000000000
   62       -0.0000000000
   63       -1.7181146700
   64       -0.0561725600
   65       -0.0561725600
   66       -0.0000000000
   67        0.0000000000
   68        0.0000000000
 Ene=          0.02098930
 Spin= Alpha
 Occup=        0.00000000
    1       -0.0000000000
    2        0.0000000000
    3        0.0000000000
    4       -0.0000000000
    5        0.0000000000
    6       -0.0000000000
    7        0.0000000000
    8       -0.0000000000
    9       -0.0000000000
   10        0.0000000000
   11        0.0000000000
   12        0.0709829800
   13       -0.0086629400
   14        0.0000000000
   15       -0.1928729700
   16        0.0235386900
   17        0.0000000000
   18        0.8548862800
   19       -0.1043324100
   20       -0.0000000000
   21       -0.9870502600
   22        0.1204620200
   23        0.0000000000
   24        0.0000000000
   25        0.0000000000
   26       -0.0757697400
   27        0.0092471200
   28       -0.0000000000
   29        0.0000000000
   30        0.0000000000
   31        0.0000000000
   32        0.1265081500
   33       -0.0154393600
   34       -0.0000000000
   35       -0.0000000000
   36       -0.0000000000
   37       -0.0000000000
   38        0.0000000000
   39       -0.0000000000
   40        0.0000000000
   41       -0.0000000000
   42        0.0000000000
   43       -0.0000000000
   44        0.0000000000
   45       -0.0000000000
   46        0.0709829800
   47       -0.0086629400
   48        0.0000000000
   49       -0.1928729700
   50        0.0235386900
   51        0.0000000000
   52        0.8548862800
   53       -0.1043324100
   54       -0.0000000000
   55       -0.9870502600
   56        0.1204620200
   57        0.0000000000
   58       -0.0000000000
   59       -0.0000000000
   60        0.0757697400
   61       -0.0092471200
   62        0.0000000000
   63       -0.0000000000
   64       -0.0000000000
   65       -0.0000000000
   66       -0.1265081500
   67        0.0154393600
   68        0.0000000000
 Ene=          0.02098930
 Spin= Alpha
 Occup=        0.00000000
    1        0.0000000000
    2       -0.0000000000
    3       -0.0000000000
    4        0.0000000000
    5       -0.0000000000
    6        0.0000000000
    7       -0.0000000000
    8        0.0000000000
    9       -0.0000000000
   10        0.0000000000
   11       -0.0000000000
   12        0.0086629400
   13        0.0709829800
   14       -0.0000000000
   15       -0.0235386900
   16       -0.1928729700
   17       -0.0000000000
   18        0.1043324100
   19        0.8548862800
   20        0.0000000000
   21       -0.1204620200
   22       -0.9870502600
   23       -0.0000000000
   24       -0.0000000000
   25       -0.0000000000
   26       -0.0092471200
   27       -0.0757697400
   28        0.0000000000
   29       -0.0000000000
   30       -0.0000000000
   31       -0.0000000000
   32        0.0154393600
   33        0.1265081500
   34       -0.0000000000
   35       -0.0000000000
   36        0.0000000000
   37        0.0000000000
   38       -0.0000000000
   39        0.0000000000
   40       -0.0000000000
   41        0.0000000000
   42       -0.0000000000
   43       -0.0000000000
   44       -0.0000000000
   45       -0.0000000000
   46        0.0086629400
   47        0.0709829800
   48       -0.0000000000
   49       -0.0235386900
   50       -0.1928729700
   51       -0.0000000000
   52        0.1043324100
   53        0.8548862800
   54        0.0000000000
   55       -0.1204620200
   56       -0.9870502600
   57        0.0000000000
   58        0.0000000000
   59        0.0000000000
   60        0.0092471200
   61        0.0757697400
   62       -0.0000000000
   63        0.0000000000
   64        0.0000000000
   65        0.0000000000
   66       -0.0154393600
   67       -0.1265081500
   68        0.0000000000
 Ene=          0.02530620
 Spin= Alpha
 Occup=        0.00000000
    1       -0.5751746200
    2       -0.0751239300
    3        0.1307454200
    4       -0.8735168600
    5        0.6095391000
    6        0.0204091400
    7        0.0654749000
    8       -0.0435657600
    9       -0.0015242100
   10       -0.0001771100
   11        0.6189703200
   12       -0.0000000000
   13       -0.0000000000
   14       -0.2149108800
   15       -0.0000000000
   16        0.0000000000
   17        0.2598924100
   18        0.0000000000
   19       -0.0000000000
   20        0.2704238500
   21       -0.0000000000
   22       -0.0000000000
   23        0.3320309200
   24        0.0359550000
   25        0.0359550000
   26       -0.0000000000
   27       -0.0000000000
   28       -0.0000000000
   29        0.0362914000
   30        0.0925267000
   31        0.0925267000
   32        0.0000000000
   33        0.0000000000
   34        0.0000000000
   35       -0.5751746200
   36       -0.0751239300
   37        0.1307454200
   38       -0.8735168600
   39        0.6095391000
   40        0.0204091400
   41        0.0654749000
   42       -0.0435657600
   43       -0.0015242100
   44       -0.0001771100
   45       -0.6189703200
   46        0.0000000000
   47        0.0000000000
   48        0.2149108800
   49       -0.0000000000
   50       -0.0000000000
   51       -0.2598924100
   52       -0.0000000000
   53       -0.0000000000
   54       -0.2704238500
   55        0.0000000000
   56        0.0000000000
   57        0.3320309200
   58        0.0359550000
   59        0.0359550000
   60       -0.0000000000
   61       -0.0000000000
   62        0.0000000000
   63        0.0362914000
   64        0.0925267000
   65        0.0925267000
   66        0.0000000000
   67        0.0000000000
   68       -0.0000000000
 Ene=          0.02658530
 Spin= Alpha
 Occup=        0.00000000
    1       -0.0000000000
    2       -0.0000000000
    3        0.0000000000
    4       -0.0000000000
    5        0.0000000000
    6       -0.0000000000
    7        0.0000000000
    8       -0.0000000000
    9       -0.0000000000
   10        0.0000000000
   11       -0.0000000000
   12        1.5114969600
   13        1.3809947700
   14       -0.0000000000
   15       -0.4273168100
   16       -0.3904224100
   17        0.0000000000
   18        1.0664436900
   19        0.9743672600
   20        0.0000000000
   21       -0.6239708500
   22       -0.5700973900
   23       -0.0000000000
   24       -0.0000000000
   25       -0.0000000000
   26        0.3827853900
   27        0.3497358100
   28        0.0000000000
   29       -0.0000000000
   30       -0.0000000000
   31       -0.0000000000
   32       -0.0200648700
   33       -0.0183324700
   34       -0.0000000000
   35        0.0000000000
   36        0.0000000000
   37       -0.0000000000
   38        0.0000000000
   39       -0.0000000000
   40       -0.0000000000
   41       -0.0000000000
   42        0.0000000000
   43       -0.0000000000
   44        0.0000000000
   45       -0.0000000000
   46       -1.5114969600
   47       -1.3809947700
   48       -0.0000000000
   49        0.4273168100
   50        0.3904224100
   51        0.0000000000
   52       -1.0664436900
   53       -0.9743672600
   54        0.0000000000
   55        0.6239708500
   56        0.5700973900
   57       -0.0000000000
   58        0.0000000000
   59        0.0000000000
   60        0.3827853900
   61        0.3497358100
   62       -0.0000000000
   63        0.0000000000
   64        0.0000000000
   65        0.0000000000
   66       -0.0200648700
   67       -0.0183324700
   68        0.0000000000
 Ene=          0.02658530
 Spin= Alpha
 Occup=        0.00000000
    1        0.0000000000
    2        0.0000000000
    3       -0.0000000000
    4        0.0000000000
    5       -0.0000000000
    6        0.0000000000
    7       -0.0000000000
    8        0.0000000000
    9       -0.0000000000
   10        0.0000000000
   11       -0.0000000000
   12        1.3809947700
   13       -1.5114969600
   14        0.0000000000
   15       -0.3904224100
   16        0.4273168100
   17       -0.0000000000
   18        0.9743672600
   19       -1.0664436900
   20        0.0000000000
   21       -0.5700973900
   22        0.6239708500
   23       -0.0000000000
   24        0.0000000000
   25        0.0000000000
   26        0.3497358100
   27       -0.3827853900
   28       -0.0000000000
   29        0.0000000000
   30       -0.0000000000
   31       -0.0000000000
   32       -0.0183324700
   33        0.0200648700
   34        0.0000000000
   35        0.0000000000
   36       -0.0000000000
   37       -0.0000000000
   38       -0.0000000000
   39        0.0000000000
   40        0.0000000000
   41        0.0000000000
   42       -0.0000000000
   43       -0.0000000000
   44        0.0000000000
   45        0.0000000000
   46       -1.3809947700
   47        1.5114969600
   48        0.0000000000
   49        0.3904224100
   50       -0.4273168100
   51       -0.0000000000
   52       -0.9743672600
   53        1.0664436900
   54       -0.0000000000
   55        0.5700973900
   56       -0.6239708500
   57       -0.0000000000
   58       -0.0000000000
   59       -0.0000000000
   60        0.3497358100
   61       -0.3827853900
   62        0.0000000000
   63       -0.0000000000
   64       -0.0000000000
   65       -0.0000000000
   66       -0.0183324700
   67        0.0200648700
   68       -0.0000000000
 Ene=          0.02700940
 Spin= Alpha
 Occup=        0.00000000
    1        0.0236375900
    2       -2.5145707300
    3        0.9918303000
    4       -1.5001206000
    5        0.7834606200
    6        0.0041037400
    7        0.0755996800
    8       -0.0483681800
    9       -0.0013165300
   10       -0.0002507200
   11        0.0061784700
   12       -0.0000000000
   13        0.0000000000
   14       -1.5006297900
   15        0.0000000000
   16       -0.0000000000