[Molden Format]
[Title]
 Molden2AIM, Version 3.1.0 (02/25/2015)           Time: Thu Oct 17 19:52:06 2024

[Atoms] AU
E+       1       4     0.00000000     0.00000000     0.00000000
E+       2       4     3.20000000     0.00000000     0.00000000
[GTO]
    1 0
 S   1 1.0
    0.1000000000D-03      0.1000000000D+01
 S   1 1.0
    0.3000000000D-03      0.1000000000D+01
 S   1 1.0
    0.9000000000D-03      0.1000000000D+01
 S   1 1.0
    0.2700000000D-02      0.1000000000D+01
 S   1 1.0
    0.8100000000D-02      0.1000000000D+01
 S   1 1.0
    0.2430000000D-01      0.1000000000D+01
 S   1 1.0
    0.7290000000D-01      0.1000000000D+01
 S   1 1.0
    0.2187000000D+00      0.1000000000D+01
 S   1 1.0
    0.6561000000D+00      0.1000000000D+01
 S   1 1.0
    0.1968300000D+01      0.1000000000D+01
 P   1 1.0
    0.1000000000D-03      0.1000000000D+01
 P   1 1.0
    0.3000000000D-03      0.1000000000D+01
 P   1 1.0
    0.9000000000D-03      0.1000000000D+01
 P   1 1.0
    0.2700000000D-02      0.1000000000D+01
 D   1 1.0
    0.1000000000D-03      0.1000000000D+01
 D   1 1.0
    0.3000000000D-03      0.1000000000D+01

    2 0
 S   1 1.0
    0.1000000000D-03      0.1000000000D+01
 S   1 1.0
    0.3000000000D-03      0.1000000000D+01
 S   1 1.0
    0.9000000000D-03      0.1000000000D+01
 S   1 1.0
    0.2700000000D-02      0.1000000000D+01
 S   1 1.0
    0.8100000000D-02      0.1000000000D+01
 S   1 1.0
    0.2430000000D-01      0.1000000000D+01
 S   1 1.0
    0.7290000000D-01      0.1000000000D+01
 S   1 1.0
    0.2187000000D+00      0.1000000000D+01
 S   1 1.0
    0.6561000000D+00      0.1000000000D+01
 S   1 1.0
    0.1968300000D+01      0.1000000000D+01
 P   1 1.0
    0.1000000000D-03      0.1000000000D+01
 P   1 1.0
    0.3000000000D-03      0.1000000000D+01
 P   1 1.0
    0.9000000000D-03      0.1000000000D+01
 P   1 1.0
    0.2700000000D-02      0.1000000000D+01
 D   1 1.0
    0.1000000000D-03      0.1000000000D+01
 D   1 1.0
    0.3000000000D-03      0.1000000000D+01


[MO]
 Ene=         -0.02336720
 Spin= Alpha
 Occup=        1.00000000
    1       -0.0085269600
    2       -0.0087058700
    3        0.0151248700
    4       -0.0008735800
    5        0.1636817700
    6        0.2562751800
    7        0.2570098100
    8       -0.2009813800
    9       -0.0155684400
   10       -0.0000215400
   11       -0.0003078400
   12        0.0000000000
   13       -0.0000000000
   14       -0.0006770200
   15       -0.0000000000
   16        0.0000000000
   17       -0.0117312100
   18       -0.0000000000
   19       -0.0000000000
   20        0.0191943600
   21        0.0000000000
   22       -0.0000000000
   23        0.0012998300
   24        0.0012153600
   25        0.0012153600
   26        0.0000000000
   27       -0.0000000000
   28        0.0000000000
   29        0.0039250700
   30        0.0042423800
   31        0.0042423800
   32       -0.0000000000
   33       -0.0000000000
   34       -0.0000000000
   35       -0.0085269600
   36       -0.0087058700
   37        0.0151248700
   38       -0.0008735800
   39        0.1636817700
   40        0.2562751800
   41        0.2570098100
   42       -0.2009813800
   43       -0.0155684400
   44       -0.0000215400
   45        0.0003078400
   46       -0.0000000000
   47        0.0000000000
   48        0.0006770200
   49        0.0000000000
   50        0.0000000000
   51        0.0117312100
   52        0.0000000000
   53        0.0000000000
   54       -0.0191943600
   55       -0.0000000000
   56        0.0000000000
   57        0.0012998300
   58        0.0012153600
   59        0.0012153600
   60       -0.0000000000
   61        0.0000000000
   62       -0.0000000000
   63        0.0039250700
   64        0.0042423800
   65        0.0042423800
   66        0.0000000000
   67        0.0000000000
   68        0.0000000000
 Ene=          0.00210376
 Spin= Alpha
 Occup=        0.00000000
    1        0.1247293200
    2        0.3132571600
    3       -1.0826632700
    4        0.4848621600
    5       -0.0803014100
    6        0.0843008200
    7        0.0108814300
    8       -0.0165470600
    9       -0.0031487900
   10        0.0002460700
   11        0.0044764100
   12       -0.0000000000
   13        0.0000000000
   14        0.0214731200
   15        0.0000000000
   16       -0.0000000000
   17        0.2561378100
   18        0.0000000000
   19       -0.0000000000
   20       -0.2001166900
   21        0.0000000000
   22       -0.0000000000
   23       -0.0185355700
   24       -0.0160137300
   25       -0.0160137300
   26        0.0000000000
   27        0.0000000000
   28        0.0000000000
   29       -0.0821198400
   30       -0.0903542400
   31       -0.0903542400
   32       -0.0000000000
   33       -0.0000000000
   34       -0.0000000000
   35        0.1247293200
   36        0.3132571600
   37       -1.0826632700
   38        0.4848621600
   39       -0.0803014100
   40        0.0843008200
   41        0.0108814300
   42       -0.0165470600
   43       -0.0031487900
   44        0.0002460700
   45       -0.0044764100
   46        0.0000000000
   47       -0.0000000000
   48       -0.0214731200
   49       -0.0000000000
   50        0.0000000000
   51       -0.2561378100
   52       -0.0000000000
   53        0.0000000000
   54        0.2001166900
   55       -0.0000000000
   56        0.0000000000
   57       -0.0185355700
   58       -0.0160137300
   59       -0.0160137300
   60       -0.0000000000
   61       -0.0000000000
   62       -0.0000000000
   63       -0.0821198400
   64       -0.0903542400
   65       -0.0903542400
   66        0.0000000000
   67        0.0000000000
   68       -0.0000000000
 Ene=          0.00293310
 Spin= Alpha
 Occup=        0.00000000
    1        0.0032174600
    2        0.0061080400
    3       -0.0640378500
    4        0.0864632400
    5       -0.4967365600
    6       -0.0148875100
    7       -0.0465474700
    8        0.0171664000
    9       -0.0012040300
   10        0.0003560100
   11       -0.1814666300
   12        0.0000000000
   13        0.0000000000
   14       -0.1550170200
   15       -0.0000000000
   16       -0.0000000000
   17        0.7917337500
   18        0.0000000000
   19       -0.0000000000
   20       -0.1068928000
   21       -0.0000000000
   22        0.0000000000
   23       -2.1216151800
   24       -2.1073478400
   25       -2.1073478400
   26        0.0000000000
   27        0.0000000000
   28       -0.0000000000
   29       -4.0753693400
   30       -4.0905022700
   31       -4.0905022700
   32       -0.0000000000
   33       -0.0000000000
   34        0.0000000000
   35       -0.0032174600
   36       -0.0061080400
   37        0.0640378500
   38       -0.0864632400
   39        0.4967365600
   40        0.0148875100
   41        0.0465474700
   42       -0.0171664000
   43        0.0012040300
   44       -0.0003560100
   45       -0.1814666300
   46       -0.0000000000
   47       -0.0000000000
   48       -0.1550170200
   49        0.0000000000
   50        0.0000000000
   51        0.7917337500
   52       -0.0000000000
   53        0.0000000000
   54       -0.1068928000
   55        0.0000000000
   56       -0.0000000000
   57        2.1216151800
   58        2.1073478400
   59        2.1073478400
   60        0.0000000000
   61        0.0000000000
   62        0.0000000000
   63        4.0753693400
   64        4.0905022700
   65        4.0905022700
   66       -0.0000000000
   67       -0.0000000000
   68       -0.0000000000
 Ene=          0.00339993
 Spin= Alpha
 Occup=        0.00000000
    1       -0.0000000000
    2        0.0000000000
    3       -0.0000000000
    4        0.0000000000
    5        0.0000000000
    6       -0.0000000000
    7        0.0000000000
    8       -0.0000000000
    9        0.0000000000
   10       -0.0000000000
   11        0.0000000000
   12       -0.0254190600
   13        0.0057290400
   14       -0.0000000000
   15        0.1145171100
   16       -0.0258102700
   17        0.0000000000
   18       -0.5583862500
   19        0.1258510600
   20        0.0000000000
   21       -0.0049748100
   22        0.0011212400
   23       -0.0000000000
   24       -0.0000000000
   25       -0.0000000000
   26       -0.5203589200
   27        0.1172803300
   28        0.0000000000
   29       -0.0000000000
   30       -0.0000000000
   31       -0.0000000000
   32        0.3198900500
   33       -0.0720979500
   34       -0.0000000000
   35        0.0000000000
   36        0.0000000000
   37        0.0000000000
   38       -0.0000000000
   39       -0.0000000000
   40        0.0000000000
   41       -0.0000000000
   42        0.0000000000
   43       -0.0000000000
   44        0.0000000000
   45       -0.0000000000
   46       -0.0254190600
   47        0.0057290400
   48        0.0000000000
   49        0.1145171100
   50       -0.0258102700
   51       -0.0000000000
   52       -0.5583862500
   53        0.1258510600
   54        0.0000000000
   55       -0.0049748100
   56        0.0011212400
   57        0.0000000000
   58        0.0000000000
   59        0.0000000000
   60        0.5203589200
   61       -0.1172803300
   62       -0.0000000000
   63        0.0000000000
   64        0.0000000000
   65        0.0000000000
   66       -0.3198900500
   67        0.0720979500
   68        0.0000000000
 Ene=          0.00339993
 Spin= Alpha
 Occup=        0.00000000
    1       -0.0000000000
    2       -0.0000000000
    3       -0.0000000000
    4       -0.0000000000
    5        0.0000000000
    6       -0.0000000000
    7        0.0000000000
    8       -0.0000000000
    9        0.0000000000
   10       -0.0000000000
   11        0.0000000000
   12       -0.0057290400
   13       -0.0254190600
   14        0.0000000000
   15        0.0258102700
   16        0.1145171100
   17       -0.0000000000
   18       -0.1258510600
   19       -0.5583862500
   20       -0.0000000000
   21       -0.0011212400
   22       -0.0049748100
   23        0.0000000000
   24        0.0000000000
   25        0.0000000000
   26       -0.1172803300
   27       -0.5203589200
   28       -0.0000000000
   29        0.0000000000
   30        0.0000000000
   31        0.0000000000
   32        0.0720979500
   33        0.3198900500
   34        0.0000000000
   35        0.0000000000
   36        0.0000000000
   37        0.0000000000
   38        0.0000000000
   39       -0.0000000000
   40        0.0000000000
   41       -0.0000000000
   42        0.0000000000
   43        0.0000000000
   44       -0.0000000000
   45       -0.0000000000
   46       -0.0057290400
   47       -0.0254190600
   48       -0.0000000000
   49        0.0258102700
   50        0.1145171100
   51       -0.0000000000
   52       -0.1258510600
   53       -0.5583862500
   54       -0.0000000000
   55       -0.0011212400
   56       -0.0049748100
   57       -0.0000000000
   58       -0.0000000000
   59       -0.0000000000
   60        0.1172803300
   61        0.5203589200
   62        0.0000000000
   63       -0.0000000000
   64       -0.0000000000
   65       -0.0000000000
   66       -0.0720979500
   67       -0.3198900500
   68       -0.0000000000
 Ene=          0.00657252
 Spin= Alpha
 Occup=        0.00000000
    1        0.0000000000
    2        0.0000000000
    3       -0.0000000000
    4        0.0000000000
    5       -0.0000000000
    6        0.0000000000
    7        0.0000000000
    8       -0.0000000000
    9        0.0000000000
   10       -0.0000000000
   11       -0.0000000000
   12        0.0003733600
   13        0.0000577600
   14       -0.0000000000
   15       -0.0009868000
   16       -0.0001526500
   17        0.0000000000
   18        9.5653418900
   19        1.4796739400
   20        0.0000000000
   21        1.4854193900
   22        0.2297812700
   23       -0.0000000000
   24       -0.0000000000
   25       -0.0000000000
   26       -0.0360164500
   27       -0.0055714300
   28        0.0000000000
   29       -0.0000000000
   30       -0.0000000000
   31       -0.0000000000
   32        0.1065678800
   33        0.0164851100
   34       -0.0000000000
   35       -0.0000000000
   36        0.0000000000
   37       -0.0000000000
   38       -0.0000000000
   39       -0.0000000000
   40       -0.0000000000
   41       -0.0000000000
   42        0.0000000000
   43        0.0000000000
   44       -0.0000000000
   45        0.0000000000
   46       -0.0003733600
   47       -0.0000577600
   48        0.0000000000
   49        0.0009868000
   50        0.0001526500
   51       -0.0000000000
   52       -9.5653418900
   53       -1.4796739400
   54       -0.0000000000
   55       -1.4854193900
   56       -0.2297812700
   57       -0.0000000000
   58        0.0000000000
   59        0.0000000000
   60       -0.0360164500
   61       -0.0055714300
   62       -0.0000000000
   63        0.0000000000
   64        0.0000000000
   65        0.0000000000
   66        0.1065678800
   67        0.0164851100
   68        0.0000000000
 Ene=          0.00657252
 Spin= Alpha
 Occup=        0.00000000
    1        0.0000000000
    2        0.0000000000
    3       -0.0000000000
    4       -0.0000000000
    5       -0.0000000000
    6        0.0000000000
    7        0.0000000000
    8       -0.0000000000
    9       -0.0000000000
   10       -0.0000000000
   11       -0.0000000000
   12        0.0000577600
   13       -0.0003733600
   14        0.0000000000
   15       -0.0001526500
   16        0.0009868000
   17        0.0000000000
   18        1.4796739400
   19       -9.5653418900
   20        0.0000000000
   21        0.2297812700
   22       -1.4854193900
   23       -0.0000000000
   24       -0.0000000000
   25       -0.0000000000
   26       -0.0055714300
   27        0.0360164500
   28        0.0000000000
   29       -0.0000000000
   30       -0.0000000000
   31       -0.0000000000
   32        0.0164851100
   33       -0.1065678800
   34       -0.0000000000
   35       -0.0000000000
   36        0.0000000000
   37       -0.0000000000
   38       -0.0000000000
   39        0.0000000000
   40       -0.0000000000
   41       -0.0000000000
   42        0.0000000000
   43        0.0000000000
   44        0.0000000000
   45        0.0000000000
   46       -0.0000577600
   47        0.0003733600
   48       -0.0000000000
   49        0.0001526500
   50       -0.0009868000
   51       -0.0000000000
   52       -1.4796739400
   53        9.5653418900
   54       -0.0000000000
   55       -0.2297812700
   56        1.4854193900
   57        0.0000000000
   58        0.0000000000
   59        0.0000000000
   60       -0.0055714300
   61        0.0360164500
   62       -0.0000000000
   63        0.0000000000
   64        0.0000000000
   65        0.0000000000
   66        0.0164851100
   67       -0.1065678800
   68        0.0000000000
 Ene=          0.00661149
 Spin= Alpha
 Occup=        0.00000000
    1        0.2731657800
    2        0.5779623500
    3       -0.5518136000
    4       -0.4369473700
    5       -0.0177730700
    6        0.0021131300
    7        0.0002963300
    8       -0.0003065100
    9        0.0000516900
   10       -0.0000114600
   11        0.0104164900
   12       -0.0000000000
   13        0.0000000000
   14        0.0385178100
   15       -0.0000000000
   16       -0.0000000000
   17        8.1986854600
   18       -0.0000000000
   19        0.0000000000
   20        1.3955133500
   21       -0.0000000000
   22        0.0000000000
   23       -0.0735848100
   24       -0.0208950100
   25       -0.0208950100
   26       -0.0000000000
   27       -0.0000000000
   28        0.0000000000
   29       -0.0658193000
   30       -0.2247410600
   31       -0.2247410600
   32       -0.0000000000
   33        0.0000000000
   34       -0.0000000000
   35        0.2731657800
   36        0.5779623500
   37       -0.5518136000
   38       -0.4369473700
   39       -0.0177730700
   40        0.0021131300
   41        0.0002963300
   42       -0.0003065100
   43        0.0000516900
   44       -0.0000114600
   45       -0.0104164900
   46        0.0000000000
   47       -0.0000000000
   48       -0.0385178100
   49        0.0000000000
   50        0.0000000000
   51       -8.1986854600
   52        0.0000000000
   53       -0.0000000000
   54       -1.3955133500
   55        0.0000000000
   56       -0.0000000000
   57       -0.0735848100
   58       -0.0208950100
   59       -0.0208950100
   60        0.0000000000
   61        0.0000000000
   62       -0.0000000000
   63       -0.0658193000
   64       -0.2247410600
   65       -0.2247410600
   66       -0.0000000000
   67        0.0000000000
   68        0.0000000000
 Ene=          0.00750831
 Spin= Alpha
 Occup=        0.00000000
    1        0.0025876000
    2        0.0053988400
    3       -0.0578552600
    4        0.1245863800
    5        0.0034023800
    6        0.3368736600
    7        0.0892505300
    8       -0.0400773200
    9        0.0001363400
   10       -0.0004940600
   11       -0.1459689600
   12        0.0000000000
   13        0.0000000000
   14       -0.1407816300
   15       -0.0000000000
   16       -0.0000000000
   17        0.7575266900
   18       -0.0000000000
   19        0.0000000000
   20       -0.7168611400
   21       -0.0000000000
   22        0.0000000000
   23       -1.7033497800
   24       -1.6891660300
   25       -1.6891660300
   26        0.0000000000
   27        0.0000000000
   28       -0.0000000000
   29       -3.3672514000
   30       -3.3825825700
   31       -3.3825825700
   32       -0.0000000000
   33       -0.0000000000
   34        0.0000000000
   35       -0.0025876000
   36       -0.0053988400
   37        0.0578552600
   38       -0.1245863800
   39       -0.0034023800
   40       -0.3368736600
   41       -0.0892505300
   42        0.0400773200
   43       -0.0001363400
   44        0.0004940600
   45       -0.1459689600
   46       -0.0000000000
   47       -0.0000000000
   48       -0.1407816300
   49        0.0000000000
   50        0.0000000000
   51        0.7575266900
   52        0.0000000000
   53       -0.0000000000
   54       -0.7168611400
   55        0.0000000000
   56       -0.0000000000
   57        1.7033497800
   58        1.6891660300
   59        1.6891660300
   60        0.0000000000
   61        0.0000000000
   62        0.0000000000
   63        3.3672514000
   64        3.3825825700
   65        3.3825825700
   66       -0.0000000000
   67       -0.0000000000
   68       -0.0000000000
 Ene=          0.00849444
 Spin= Alpha
 Occup=        0.00000000
    1       -0.0837432200
    2        0.1459217800
    3       -0.8890241000
    4        1.4709408100
    5       -0.6380543100
    6        0.0492038400
    7       -0.1145460900
    8        0.0675467800
    9        0.0010086200
   10        0.0006091400
   11       -0.0029665600
   12       -0.0000000000
   13        0.0000000000
   14        0.0074064200
   15        0.0000000000
   16       -0.0000000000
   17        1.0949030000
   18       -0.0000000000
   19        0.0000000000
   20       -0.7366610900
   21        0.0000000000
   22        0.0000000000
   23        0.0081083900
   24        0.0170511600
   25        0.0170511600
   26        0.0000000000
   27        0.0000000000
   28        0.0000000000
   29        0.0239967100
   30       -0.0011300500
   31       -0.0011300500
   32       -0.0000000000
   33       -0.0000000000
   34       -0.0000000000
   35       -0.0837432200
   36        0.1459217800
   37       -0.8890241000
   38        1.4709408100
   39       -0.6380543100
   40        0.0492038400
   41       -0.1145460900
   42        0.0675467800
   43        0.0010086200
   44        0.0006091400
   45        0.0029665600
   46        0.0000000000
   47       -0.0000000000
   48       -0.0074064200
   49       -0.0000000000
   50        0.0000000000
   51       -1.0949030000
   52        0.0000000000
   53       -0.0000000000
   54        0.7366610900
   55       -0.0000000000
   56       -0.0000000000
   57        0.0081083900
   58        0.0170511600
   59        0.0170511600
   60       -0.0000000000
   61       -0.0000000000
   62       -0.0000000000
   63        0.0239967100
   64       -0.0011300500
   65       -0.0011300500
   66        0.0000000000
   67        0.0000000000
   68        0.0000000000
 Ene=          0.00869806
 Spin= Alpha
 Occup=        0.00000000
    1       -0.0000000000
    2       -0.0000000000
    3       -0.0000000000
    4       -0.0000000000
    5       -0.0000000000
    6        0.0000000000
    7       -0.0000000000
    8        0.0000000000
    9        0.0000000000
   10       -0.0000000000
   11        0.0000000000
   12       -0.0082008600
   13       -0.0221931700
   14       -0.0000000000
   15        0.0376728700
   16        0.1019503500
   17       -0.0000000000
   18       -0.2131971700
   19       -0.5769543800
   20       -0.0000000000
   21        0.2551460900
   22        0.6904765700
   23        0.0000000000
   24        0.0000000000
   25        0.0000000000
   26       -0.1597535300
   27       -0.4323251600
   28        0.0000000000
   29        0.0000000000
   30        0.0000000000
   31        0.0000000000
   32        0.0968668100
   33        0.2621410500
   34        0.0000000000
   35        0.0000000000
   36        0.0000000000
   37        0.0000000000
   38        0.0000000000
   39       -0.0000000000
   40       -0.0000000000
   41       -0.0000000000
   42        0.0000000000
   43       -0.0000000000
   44        0.0000000000
   45       -0.0000000000
   46       -0.0082008600
   47       -0.0221931700
   48       -0.0000000000
   49        0.0376728700
   50        0.1019503500
   51        0.0000000000
   52       -0.2131971700
   53       -0.5769543800
   54        0.0000000000
   55        0.2551460900
   56        0.6904765700
   57       -0.0000000000
   58       -0.0000000000
   59       -0.0000000000
   60        0.1597535300
   61        0.4323251600
   62       -0.0000000000
   63       -0.0000000000
   64       -0.0000000000
   65       -0.0000000000
   66       -0.0968668100
   67       -0.2621410500
   68       -0.0000000000
 Ene=          0.00869806
 Spin= Alpha
 Occup=        0.00000000
    1        0.0000000000
    2       -0.0000000000
    3        0.0000000000
    4       -0.0000000000
    5        0.0000000000
    6       -0.0000000000
    7        0.0000000000
    8       -0.0000000000
    9       -0.0000000000
   10       -0.0000000000
   11       -0.0000000000
   12        0.0221931700
   13       -0.0082008600
   14        0.0000000000
   15       -0.1019503500
   16        0.0376728700
   17       -0.0000000000
   18        0.5769543800
   19       -0.2131971700
   20       -0.0000000000
   21       -0.6904765700
   22        0.2551460900
   23        0.0000000000
   24        0.0000000000
   25        0.0000000000
   26        0.4323251600
   27       -0.1597535300
   28       -0.0000000000
   29        0.0000000000
   30        0.0000000000
   31        0.0000000000
   32       -0.2621410500
   33        0.0968668100
   34        0.0000000000
   35       -0.0000000000
   36        0.0000000000
   37       -0.0000000000
   38        0.0000000000
   39        0.0000000000
   40       -0.0000000000
   41        0.0000000000
   42       -0.0000000000
   43       -0.0000000000
   44       -0.0000000000
   45        0.0000000000
   46        0.0221931700
   47       -0.0082008600
   48       -0.0000000000
   49       -0.1019503500
   50        0.0376728700
   51        0.0000000000
   52        0.5769543800
   53       -0.2131971700
   54       -0.0000000000
   55       -0.6904765700
   56        0.2551460900
   57       -0.0000000000
   58       -0.0000000000
   59       -0.0000000000
   60       -0.4323251600
   61        0.1597535300
   62        0.0000000000
   63       -0.0000000000
   64       -0.0000000000
   65       -0.0000000000
   66        0.2621410500
   67       -0.0968668100
   68       -0.0000000000
 Ene=          0.01444960
 Spin= Alpha
 Occup=        0.00000000
    1       -0.0000000000
    2       -0.0000000000
    3        0.0000000000
    4        0.0000000000
    5       -0.0000000000
    6        0.0000000000
    7       -0.0000000000
    8        0.0000000000
    9       -0.0000000000
   10        0.0000000000
   11       -0.0000000000
   12        0.0002341900
   13        0.0001453200
   14       -0.0000000000
   15       -0.0001931200
   16       -0.0001198300
   17       -0.0000000000
   18        9.8792873400
   19        6.1303049100
   20        0.0000000000
   21       -6.5155983400
   22       -4.0430653700
   23        0.0000000000
   24       -0.0000000000
   25       -0.0000000000
   26       -0.0298311600
   27       -0.0185108600
   28       -0.0000000000
   29       -0.0000000000
   30        0.0000000000
   31       -0.0000000000
   32        0.0902099200
   33        0.0559771500
   34        0.0000000000
   35       -0.0000000000
   36       -0.0000000000
   37        0.0000000000
   38       -0.0000000000
   39       -0.0000000000
   40        0.0000000000
   41       -0.0000000000
   42        0.0000000000
   43       -0.0000000000
   44        0.0000000000
   45        0.0000000000
   46       -0.0002341900
   47       -0.0001453200
   48        0.0000000000
   49        0.0001931200
   50        0.0001198300
   51        0.0000000000
   52       -9.8792873400
   53       -6.1303049100
   54       -0.0000000000
   55        6.5155983400
   56        4.0430653700
   57       -0.0000000000
   58        0.0000000000
   59        0.0000000000
   60       -0.0298311600
   61       -0.0185108600
   62        0.0000000000
   63        0.0000000000
   64        0.0000000000
   65        0.0000000000
   66        0.0902099200
   67        0.0559771500
   68       -0.0000000000
 Ene=          0.01444960
 Spin= Alpha
 Occup=        0.00000000
    1       -0.0000000000
    2       -0.0000000000
    3       -0.0000000000
    4       -0.0000000000
    5       -0.0000000000
    6        0.0000000000
    7       -0.0000000000
    8        0.0000000000
    9       -0.0000000000
   10        0.0000000000
   11        0.0000000000
   12       -0.0001453200
   13        0.0002341900
   14       -0.0000000000
   15        0.0001198300
   16       -0.0001931200
   17       -0.0000000000
   18       -6.1303049100
   19        9.8792873400
   20        0.0000000000
   21        4.0430653700
   22       -6.5155983400
   23        0.0000000000
   24        0.0000000000
   25        0.0000000000
   26        0.0185108600
   27       -0.0298311600
   28        0.0000000000
   29        0.0000000000
   30        0.0000000000
   31        0.0000000000
   32       -0.0559771500
   33        0.0902099200
   34       -0.0000000000
   35        0.0000000000
   36        0.0000000000
   37        0.0000000000
   38        0.0000000000
   39       -0.0000000000
   40        0.0000000000
   41       -0.0000000000
   42        0.0000000000
   43        0.0000000000
   44       -0.0000000000
   45       -0.0000000000
   46        0.0001453200
   47       -0.0002341900
   48        0.0000000000
   49       -0.0001198300
   50        0.0001931200
   51        0.0000000000
   52        6.1303049100
   53       -9.8792873400
   54       -0.0000000000
   55       -4.0430653700
   56        6.5155983400
   57       -0.0000000000
   58       -0.0000000000
   59       -0.0000000000
   60        0.0185108600
   61       -0.0298311600
   62       -0.0000000000
   63       -0.0000000000
   64       -0.0000000000
   65       -0.0000000000
   66       -0.0559771500
   67        0.0902099200
   68        0.0000000000
 Ene=          0.01489680
 Spin= Alpha
 Occup=        0.00000000
    1        0.5068900300
    2        0.9011885800
    3       -1.3088056000
    4        0.0595702100
    5        0.5838431900
    6       -0.1003318200
    7        0.0581689800
    8       -0.0266179200
    9        0.0013816200
   10       -0.0004773800
   11        0.0186037200
   12       -0.0000000000
   13        0.0000000000
   14        0.0637629900
   15       -0.0000000000
   16       -0.0000000000
   17        9.6222401800
   18        0.0000000000
   19        0.0000000000
   20       -6.3059723700
   21       -0.0000000000
   22       -0.0000000000
   23       -0.1043360700
   24       -0.0571114900
   25       -0.0571114900
   26       -0.0000000000
   27       -0.0000000000
   28        0.0000000000
   29       -0.1952493500
   30       -0.3443798700
   31       -0.3443798700
   32        0.0000000000
   33        0.0000000000
   34       -0.0000000000
   35        0.5068900300
   36        0.9011885800
   37       -1.3088056000
   38        0.0595702100
   39        0.5838431900
   40       -0.1003318200
   41        0.0581689800
   42       -0.0266179200
   43        0.0013816200
   44       -0.0004773800
   45       -0.0186037200
   46        0.0000000000
   47       -0.0000000000
   48       -0.0637629900
   49        0.0000000000
   50        0.0000000000
   51       -9.6222401800
   52       -0.0000000000
   53       -0.0000000000
   54        6.3059723700
   55        0.0000000000
   56        0.0000000000
   57       -0.1043360700
   58       -0.0571114900
   59       -0.0571114900
   60        0.0000000000
   61        0.0000000000
   62       -0.0000000000
   63       -0.1952493500
   64       -0.3443798700
   65       -0.3443798700
   66        0.0000000000
   67       -0.0000000000
   68        0.0000000000
 Ene=          0.01895700
 Spin= Alpha
 Occup=        0.00000000
    1       -0.0024113700
    2       -0.0004665900
    3        0.0017885700
    4        0.0076690200
    5       -4.3937843300
    6       -0.2184664100
    7       -0.2472464200
    8        0.0930717400
    9       -0.0046608200
   10        0.0016949200
   11        0.1347461300
   12       -0.0000000000
   13       -0.0000000000
   14       -0.0180765700
   15        0.0000000000
   16        0.0000000000