[Molden Format]
[Atoms] AU
E+       1       4     0.00000000     0.00000000     0.00000000
E+       2       4    40.40000000     0.00000000     0.00000000
[GTO]
  1 0
s  1 1.00
   1.0000000000E-04   1.0000000000E+00
s  1 1.00
   3.0000000000E-04   1.0000000000E+00
s  1 1.00
   9.0000000000E-04   1.0000000000E+00
s  1 1.00
   2.7000000000E-03   1.0000000000E+00
s  1 1.00
   8.1000000000E-03   1.0000000000E+00
s  1 1.00
   2.4300000000E-02   1.0000000000E+00
s  1 1.00
   7.2900000000E-02   1.0000000000E+00
s  1 1.00
   2.1870000000E-01   1.0000000000E+00
s  1 1.00
   6.5610000000E-01   1.0000000000E+00
s  1 1.00
   1.9683000000E+00   1.0000000000E+00
p  1 1.00
   1.0000000000E-04   1.0000000000E+00
p  1 1.00
   3.0000000000E-04   1.0000000000E+00
p  1 1.00
   9.0000000000E-04   1.0000000000E+00
p  1 1.00
   2.7000000000E-03   1.0000000000E+00
d  1 1.00
   1.0000000000E-04   1.0000000000E+00
d  1 1.00
   3.0000000000E-04   1.0000000000E+00
 
  2 0
s  1 1.00
   1.0000000000E-04   1.0000000000E+00
s  1 1.00
   3.0000000000E-04   1.0000000000E+00
s  1 1.00
   9.0000000000E-04   1.0000000000E+00
s  1 1.00
   2.7000000000E-03   1.0000000000E+00
s  1 1.00
   8.1000000000E-03   1.0000000000E+00
s  1 1.00
   2.4300000000E-02   1.0000000000E+00
s  1 1.00
   7.2900000000E-02   1.0000000000E+00
s  1 1.00
   2.1870000000E-01   1.0000000000E+00
s  1 1.00
   6.5610000000E-01   1.0000000000E+00
s  1 1.00
   1.9683000000E+00   1.0000000000E+00
p  1 1.00
   1.0000000000E-04   1.0000000000E+00
p  1 1.00
   3.0000000000E-04   1.0000000000E+00
p  1 1.00
   9.0000000000E-04   1.0000000000E+00
p  1 1.00
   2.7000000000E-03   1.0000000000E+00
d  1 1.00
   1.0000000000E-04   1.0000000000E+00
d  1 1.00
   3.0000000000E-04   1.0000000000E+00
 
 
[MO]
Ene=    -3.56714E-03
Spin= Alpha
Occup=   1.0000000000
   1      -0.01962965
   2       0.00599211
   3       0.02265482
   4       0.19357138
   5       0.30268957
   6       0.19827396
   7       0.12264924
   8      -0.09912470
   9      -0.00678819
  10       0.00009593
  11       0.05830376
  12      -0.00000000
  13      -0.00000000
  14      -0.01560728
  15       0.00000000
  16       0.00000000
  17       0.01971469
  18      -0.00000000
  19      -0.00000000
  20       0.05182281
  21       0.00000000
  22       0.00000000
  23       0.02008120
  24      -0.00058156
  25      -0.00058156
  26       0.00000000
  27      -0.00000000
  28      -0.00000000
  29      -0.00686152
  30      -0.00175612
  31      -0.00175612
  32       0.00000000
  33      -0.00000000
  34      -0.00000000
  35      -0.01962965
  36       0.00599211
  37       0.02265482
  38       0.19357138
  39       0.30268957
  40       0.19827396
  41       0.12264924
  42      -0.09912470
  43      -0.00678819
  44       0.00009593
  45      -0.05830376
  46       0.00000000
  47       0.00000000
  48       0.01560728
  49      -0.00000000
  50      -0.00000000
  51      -0.01971469
  52       0.00000000
  53       0.00000000
  54      -0.05182281
  55      -0.00000000
  56      -0.00000000
  57       0.02008120
  58      -0.00058156
  59      -0.00058156
  60      -0.00000000
  61       0.00000000
  62       0.00000000
  63      -0.00686152
  64      -0.00175612
  65      -0.00175612
  66       0.00000000
  67       0.00000000
  68       0.00000000
Ene=    -3.30796E-03
Spin= Alpha
Occup=   0.0000000000
   1       0.00104977
   2      -0.11385886
   3       0.00785201
   4       0.25603609
   5       0.28689959
   6       0.21666701
   7       0.12386463
   8      -0.10184437
   9      -0.00728975
  10       0.00014348
  11       0.00159548
  12       0.00000000
  13       0.00000000
  14      -0.04163761
  15      -0.00000000
  16      -0.00000000
  17      -0.00179522
  18       0.00000000
  19       0.00000000
  20       0.08336907
  21      -0.00000000
  22      -0.00000000
  23       0.00156049
  24       0.00116247
  25       0.00116247
  26       0.00000000
  27       0.00000000
  28       0.00000000
  29      -0.00616580
  30       0.00276904
  31       0.00276904
  32      -0.00000000
  33      -0.00000000
  34      -0.00000000
  35      -0.00104977
  36       0.11385886
  37      -0.00785201
  38      -0.25603609
  39      -0.28689959
  40      -0.21666701
  41      -0.12386463
  42       0.10184437
  43       0.00728975
  44      -0.00014348
  45       0.00159548
  46      -0.00000000
  47      -0.00000000
  48      -0.04163761
  49       0.00000000
  50       0.00000000
  51      -0.00179522
  52       0.00000000
  53      -0.00000000
  54       0.08336907
  55      -0.00000000
  56      -0.00000000
  57      -0.00156049
  58      -0.00116247
  59      -0.00116247
  60       0.00000000
  61       0.00000000
  62      -0.00000000
  63       0.00616580
  64      -0.00276904
  65      -0.00276904
  66      -0.00000000
  67      -0.00000000
  68       0.00000000
Ene=     4.32529E-03
Spin= Alpha
Occup=   0.0000000000
   1       0.64176608
   2       0.10182249
   3      -0.98132052
   4       0.59522687
   5       0.07273374
   6       0.11696505
   7       0.03940577
   8      -0.03713205
   9      -0.00350672
  10       0.00016939
  11      -1.12966676
  12      -0.00000000
  13       0.00000000
  14       0.35718322
  15      -0.00000000
  16      -0.00000000
  17      -0.46064320
  18       0.00000000
  19       0.00000000
  20       0.03889427
  21      -0.00000000
  22      -0.00000000
  23      -0.42665691
  24      -0.02697113
  25      -0.02697113
  26      -0.00000000
  27      -0.00000000
  28       0.00000000
  29       0.03676960
  30      -0.09094631
  31      -0.09094631
  32      -0.00000000
  33       0.00000000
  34      -0.00000000
  35       0.64176608
  36       0.10182248
  37      -0.98132052
  38       0.59522687
  39       0.07273374
  40       0.11696505
  41       0.03940577
  42      -0.03713205
  43      -0.00350672
  44       0.00016939
  45       1.12966676
  46       0.00000000
  47      -0.00000000
  48      -0.35718322
  49       0.00000000
  50       0.00000000
  51       0.46064320
  52      -0.00000000
  53      -0.00000000
  54      -0.03889427
  55       0.00000000
  56       0.00000000
  57      -0.42665691
  58      -0.02697113
  59      -0.02697113
  60      -0.00000000
  61       0.00000000
  62      -0.00000000
  63       0.03676960
  64      -0.09094631
  65      -0.09094631
  66       0.00000000
  67       0.00000000
  68       0.00000000
Ene=     7.21855E-03
Spin= Alpha
Occup=   0.0000000000
   1       0.00000000
   2      -0.00000000
   3       0.00000000
   4      -0.00000000
   5       0.00000000
   6      -0.00000000
   7       0.00000000
   8      -0.00000000
   9       0.00000000
  10      -0.00000000
  11       0.00000000
  12       0.01672502
  13      -0.02455773
  14      -0.00000000
  15      -0.04918651
  16       0.07222171
  17       0.00000000
  18       0.16571644
  19      -0.24332534
  20      -0.00000000
  21       0.23728881
  22      -0.34841674
  23       0.00000000
  24      -0.00000000
  25      -0.00000000
  26      -0.00973647
  27       0.01429629
  28       0.00000000
  29      -0.00000000
  30      -0.00000000
  31      -0.00000000
  32       0.02445112
  33      -0.03590216
  34      -0.00000000
  35      -0.00000000
  36       0.00000000
  37      -0.00000000
  38       0.00000000
  39      -0.00000000
  40       0.00000000
  41      -0.00000000
  42      -0.00000000
  43       0.00000000
  44      -0.00000000
  45      -0.00000000
  46       0.01672502
  47      -0.02455773
  48      -0.00000000
  49      -0.04918651
  50       0.07222171
  51       0.00000000
  52       0.16571644
  53      -0.24332534
  54      -0.00000000
  55       0.23728881
  56      -0.34841674
  57       0.00000000
  58       0.00000000
  59       0.00000000
  60       0.00973647
  61      -0.01429629
  62      -0.00000000
  63       0.00000000
  64       0.00000000
  65       0.00000000
  66      -0.02445112
  67       0.03590216
  68      -0.00000000
Ene=     7.21855E-03
Spin= Alpha
Occup=   0.0000000000
   1      -0.00000000
   2       0.00000000
   3      -0.00000000
   4       0.00000000
   5      -0.00000000
   6      -0.00000000
   7       0.00000000
   8      -0.00000000
   9       0.00000000
  10      -0.00000000
  11       0.00000000
  12      -0.02455773
  13      -0.01672502
  14       0.00000000
  15       0.07222171
  16       0.04918651
  17      -0.00000000
  18      -0.24332534
  19      -0.16571644
  20       0.00000000
  21      -0.34841674
  22      -0.23728881
  23       0.00000000
  24       0.00000000
  25       0.00000000
  26       0.01429629
  27       0.00973647
  28      -0.00000000
  29       0.00000000
  30       0.00000000
  31       0.00000000
  32      -0.03590216
  33      -0.02445112
  34      -0.00000000
  35       0.00000000
  36      -0.00000000
  37       0.00000000
  38      -0.00000000
  39      -0.00000000
  40       0.00000000
  41      -0.00000000
  42       0.00000000
  43      -0.00000000
  44       0.00000000
  45      -0.00000000
  46      -0.02455773
  47      -0.01672502
  48       0.00000000
  49       0.07222171
  50       0.04918651
  51      -0.00000000
  52      -0.24332534
  53      -0.16571644
  54       0.00000000
  55      -0.34841674
  56      -0.23728881
  57       0.00000000
  58      -0.00000000
  59      -0.00000000
  60      -0.01429629
  61      -0.00973647
  62       0.00000000
  63      -0.00000000
  64      -0.00000000
  65      -0.00000000
  66       0.03590216
  67       0.02445112
  68       0.00000000
Ene=     9.50737E-03
Spin= Alpha
Occup=   0.0000000000
   1       0.00000000
   2      -0.00000000
   3       0.00000000
   4       0.00000000
   5      -0.00000000
   6      -0.00000000
   7      -0.00000000
   8       0.00000000
   9       0.00000000
  10      -0.00000000
  11      -0.00000000
  12       0.02133122
  13      -0.01762155
  14      -0.00000000
  15      -0.06142983
  16       0.05074669
  17       0.00000000
  18      -0.01277560
  19       0.01055382
  20       0.00000000
  21      -0.57120377
  22       0.47186685
  23      -0.00000000
  24      -0.00000000
  25      -0.00000000
  26       0.00663813
  27      -0.00548371
  28      -0.00000000
  29      -0.00000000
  30      -0.00000000
  31      -0.00000000
  32      -0.02729254
  33       0.02254615
  34      -0.00000000
  35      -0.00000000
  36       0.00000000
  37      -0.00000000
  38       0.00000000
  39       0.00000000
  40       0.00000000
  41       0.00000000
  42      -0.00000000
  43      -0.00000000
  44       0.00000000
  45       0.00000000
  46      -0.02133122
  47       0.01762155
  48      -0.00000000
  49       0.06142983
  50      -0.05074669
  51       0.00000000
  52       0.01277560
  53      -0.01055382
  54       0.00000000
  55       0.57120377
  56      -0.47186685
  57      -0.00000000
  58       0.00000000
  59       0.00000000
  60       0.00663813
  61      -0.00548371
  62       0.00000000
  63       0.00000000
  64       0.00000000
  65       0.00000000
  66      -0.02729254
  67       0.02254615
  68      -0.00000000
Ene=     9.50737E-03
Spin= Alpha
Occup=   0.0000000000
   1      -0.00000000
   2       0.00000000
   3      -0.00000000
   4      -0.00000000
   5       0.00000000
   6       0.00000000
   7       0.00000000
   8      -0.00000000
   9      -0.00000000
  10       0.00000000
  11       0.00000000
  12      -0.01762155
  13      -0.02133122
  14       0.00000000
  15       0.05074669
  16       0.06142983
  17      -0.00000000
  18       0.01055382
  19       0.01277560
  20      -0.00000000
  21       0.47186685
  22       0.57120377
  23       0.00000000
  24       0.00000000
  25       0.00000000
  26      -0.00548371
  27      -0.00663813
  28       0.00000000
  29       0.00000000
  30       0.00000000
  31       0.00000000
  32       0.02254615
  33       0.02729254
  34      -0.00000000
  35       0.00000000
  36      -0.00000000
  37       0.00000000
  38      -0.00000000
  39      -0.00000000
  40      -0.00000000
  41      -0.00000000
  42       0.00000000
  43       0.00000000
  44       0.00000000
  45      -0.00000000
  46       0.01762155
  47       0.02133122
  48       0.00000000
  49      -0.05074669
  50      -0.06142983
  51      -0.00000000
  52      -0.01055382
  53      -0.01277560
  54      -0.00000000
  55      -0.47186685
  56      -0.57120377
  57       0.00000000
  58      -0.00000000
  59      -0.00000000
  60      -0.00548371
  61      -0.00663813
  62      -0.00000000
  63      -0.00000000
  64      -0.00000000
  65      -0.00000000
  66       0.02254615
  67       0.02729254
  68       0.00000000
Ene=     9.82645E-03
Spin= Alpha
Occup=   0.0000000000
   1       0.31049007
   2     -26.73276997
   3       2.21942177
   4       0.16648412
   5      -0.54946210
   6      -0.03485725
   7      -0.08012440
   8       0.05421541
   9       0.00198881
  10       0.00020362
  11       0.11339283
  12      -0.00000000
  13      -0.00000000
  14     -10.16260822
  15       0.00000000
  16       0.00000000
  17       0.90813635
  18      -0.00000000
  19      -0.00000000
  20       0.37752312
  21       0.00000000
  22       0.00000000
  23       0.07844401
  24       0.04895278
  25       0.04895278
  26      -0.00000000
  27      -0.00000000
  28       0.00000000
  29      -2.02041435
  30       0.07356024
  31       0.07356024
  32       0.00000000
  33       0.00000000
  34      -0.00000000
  35      -0.31049007
  36      26.73276997
  37      -2.21942177
  38      -0.16648412
  39       0.54946210
  40       0.03485725
  41       0.08012440
  42      -0.05421541
  43      -0.00198881
  44      -0.00020362
  45       0.11339283
  46       0.00000000
  47       0.00000000
  48     -10.16260822
  49      -0.00000000
  50      -0.00000000
  51       0.90813635
  52       0.00000000
  53       0.00000000
  54       0.37752312
  55      -0.00000000
  56      -0.00000000
  57      -0.07844401
  58      -0.04895278
  59      -0.04895278
  60      -0.00000000
  61      -0.00000000
  62      -0.00000000
  63       2.02041435
  64      -0.07356024
  65      -0.07356024
  66       0.00000000
  67       0.00000000
  68       0.00000000
Ene=     1.01651E-02
Spin= Alpha
Occup=   0.0000000000
   1       0.38234202
   2      -0.27353205
   3      -0.56037916
   4       1.26173669
   5      -0.65305351
   6       0.05311527
   7      -0.07404973
   8       0.04147703
   9      -0.00023795
  10       0.00040627
  11      -1.39308375
  12      -0.00000000
  13       0.00000000
  14       0.37856179
  15       0.00000000
  16      -0.00000000
  17      -0.60400982
  18       0.00000000
  19       0.00000000
  20       0.75296691
  21       0.00000000
  22       0.00000000
  23      -0.46914666
  24       0.02649440
  25       0.02649440
  26      -0.00000000
  27       0.00000000
  28      -0.00000000
  29       0.21806674
  30       0.09110671
  31       0.09110671
  32       0.00000000
  33      -0.00000000
  34       0.00000000
  35       0.38234202
  36      -0.27353205
  37      -0.56037917
  38       1.26173669
  39      -0.65305350
  40       0.05311527
  41      -0.07404973
  42       0.04147703
  43      -0.00023795
  44       0.00040627
  45       1.39308375
  46       0.00000000
  47      -0.00000000
  48      -0.37856179
  49      -0.00000000
  50       0.00000000
  51       0.60400982
  52      -0.00000000
  53      -0.00000000
  54      -0.75296691
  55      -0.00000000
  56      -0.00000000
  57      -0.46914666
  58       0.02649440
  59       0.02649440
  60      -0.00000000
  61       0.00000000
  62       0.00000000
  63       0.21806674
  64       0.09110671
  65       0.09110671
  66       0.00000000
  67      -0.00000000
  68      -0.00000000
Ene=     1.44091E-02
Spin= Alpha
Occup=   0.0000000000
   1      -0.00000000
   2       0.00000000
   3      -0.00000000
   4       0.00000000
   5      -0.00000000
   6       0.00000000
   7      -0.00000000
   8       0.00000000
   9      -0.00000000
  10       0.00000000
  11       0.00000000
  12      -0.03839059
  13      -0.06340491
  14       0.00000000
  15       0.12188186
  16       0.20129697
  17      -0.00000000
  18      -0.50967212
  19      -0.84176146
  20       0.00000000
  21       0.48788008
  22       0.80577029
  23       0.00000000
  24       0.00000000
  25       0.00000000
  26       0.01466437
  27       0.02421930
  28      -0.00000000
  29       0.00000000
  30       0.00000000
  31       0.00000000
  32      -0.04694962
  33      -0.07754079
  34      -0.00000000
  35      -0.00000000
  36      -0.00000000
  37       0.00000000
  38      -0.00000000
  39       0.00000000
  40      -0.00000000
  41       0.00000000
  42      -0.00000000
  43      -0.00000000
  44       0.00000000
  45      -0.00000000
  46      -0.03839059
  47      -0.06340491
  48       0.00000000
  49       0.12188186
  50       0.20129697
  51      -0.00000000
  52      -0.50967212
  53      -0.84176146
  54       0.00000000
  55       0.48788008
  56       0.80577029
  57       0.00000000
  58      -0.00000000
  59      -0.00000000
  60      -0.01466437
  61      -0.02421930
  62       0.00000000
  63      -0.00000000
  64      -0.00000000
  65      -0.00000000
  66       0.04694962
  67       0.07754079
  68       0.00000000
Ene=     1.44091E-02
Spin= Alpha
Occup=   0.0000000000
   1      -0.00000000
   2       0.00000000
   3      -0.00000000
   4       0.00000000
   5      -0.00000000
   6       0.00000000
   7      -0.00000000
   8       0.00000000
   9      -0.00000000
  10       0.00000000
  11       0.00000000
  12       0.06340491
  13      -0.03839059
  14       0.00000000
  15      -0.20129697
  16       0.12188186
  17      -0.00000000
  18       0.84176146
  19      -0.50967212
  20       0.00000000
  21      -0.80577029
  22       0.48788008
  23       0.00000000
  24       0.00000000
  25       0.00000000
  26      -0.02421930
  27       0.01466437
  28       0.00000000
  29       0.00000000
  30       0.00000000
  31       0.00000000
  32       0.07754079
  33      -0.04694962
  34      -0.00000000
  35       0.00000000
  36      -0.00000000
  37       0.00000000
  38      -0.00000000
  39       0.00000000
  40      -0.00000000
  41       0.00000000
  42      -0.00000000
  43      -0.00000000
  44      -0.00000000
  45      -0.00000000
  46       0.06340491
  47      -0.03839059
  48       0.00000000
  49      -0.20129697
  50       0.12188186
  51      -0.00000000
  52       0.84176146
  53      -0.50967212
  54       0.00000000
  55      -0.80577029
  56       0.48788008
  57       0.00000000
  58      -0.00000000
  59      -0.00000000
  60       0.02421930
  61      -0.01466437
  62      -0.00000000
  63      -0.00000000
  64      -0.00000000
  65      -0.00000000
  66      -0.07754079
  67       0.04694962
  68      -0.00000000
Ene=     1.54165E-02
Spin= Alpha
Occup=   0.0000000000
   1       0.26868838
   2     -20.58831360
   3       1.36039391
   4      -0.67490197
   5       0.24405235
   6      -0.06406580
   7       0.01849463
   8      -0.00528179
   9       0.00126105
  10      -0.00022646
  11      -0.03673057
  12      -0.00000000
  13      -0.00000000
  14      -7.96620129
  15       0.00000000
  16       0.00000000
  17       0.91155983
  18      -0.00000000
  19      -0.00000000
  20      -0.98259499
  21       0.00000000
  22       0.00000000
  23      -0.07574769
  24      -0.07251586
  25      -0.07251586
  26      -0.00000000
  27      -0.00000000
  28       0.00000000
  29      -1.81343544
  30      -0.19127374
  31      -0.19127374
  32       0.00000000
  33       0.00000000
  34      -0.00000000
  35      -0.26868838
  36      20.58831360
  37      -1.36039391
  38       0.67490197
  39      -0.24405235
  40       0.06406580
  41      -0.01849463
  42       0.00528179
  43      -0.00126105
  44       0.00022646
  45      -0.03673057
  46       0.00000000
  47       0.00000000
  48      -7.96620129
  49      -0.00000000
  50      -0.00000000
  51       0.91155983
  52       0.00000000
  53       0.00000000
  54      -0.98259499
  55      -0.00000000
  56      -0.00000000
  57       0.07574769
  58       0.07251586
  59       0.07251586
  60      -0.00000000
  61      -0.00000000
  62      -0.00000000
  63       1.81343544
  64       0.19127374
  65       0.19127374
  66       0.00000000
  67       0.00000000
  68       0.00000000
Ene=     1.54341E-02
Spin= Alpha
Occup=   0.0000000000
   1       0.14396049
   2      -0.03462085
   3      -0.25912896
   4       1.34808205
   5      -0.80926775
   6      -0.01729563
   7      -0.08649341
   8       0.05648958
   9       0.00174016
  10       0.00026275
  11      -0.50252695
  12      -0.00000000
  13       0.00000000
  14       0.05496279
  15       0.00000000
  16      -0.00000000
  17      -0.23453864
  18      -0.00000000
  19       0.00000000
  20      -0.26033471
  21      -0.00000000
  22      -0.00000000
  23      -0.16643385
  24       0.00756241
  25       0.00756241
  26      -0.00000000
  27       0.00000000
  28      -0.00000000
  29       0.01671819
  30       0.03207479
  31       0.03207479
  32       0.00000000
  33      -0.00000000
  34       0.00000000
  35       0.14396049
  36      -0.03462086
  37      -0.25912896
  38       1.34808205
  39      -0.80926775
  40      -0.01729563
  41      -0.08649341
  42       0.05648958
  43       0.00174016
  44       0.00026275
  45       0.50252695
  46       0.00000000
  47      -0.00000000
  48      -0.05496279
  49      -0.00000000
  50       0.00000000
  51       0.23453864
  52       0.00000000
  53      -0.00000000
  54       0.26033471
  55      -0.00000000
  56       0.00000000
  57      -0.16643385
  58       0.00756241
  59       0.00756241
  60      -0.00000000
  61       0.00000000
  62       0.00000000
  63       0.01671819
  64       0.03207479
  65       0.03207479
  66       0.00000000
  67      -0.00000000
  68      -0.00000000
Ene=     1.86966E-02
Spin= Alpha
Occup=   0.0000000000
   1      -0.41457657
   2      34.09197547
   3      -4.03240585
   4       2.60505416
   5      -1.11614875
   6       0.01905050
   7      -0.10183055
   8       0.06248255
   9       0.00112018
  10       0.00040682
  11      -0.06941127
  12       0.00000000
  13       0.00000000
  14      13.06217697
  15      -0.00000000
  16      -0.00000000
  17      -1.86175395
  18       0.00000000
  19       0.00000000
  20       0.00775481
  21      -0.00000000
  22      -0.00000000
  23      -0.00360348
  24      -0.00403249
  25      -0.00403249
  26       0.00000000
  27       0.00000000
  28      -0.00000000
  29       2.72249621
  30       0.08428568
  31       0.08428568
  32      -0.00000000
  33      -0.00000000
  34       0.00000000
  35       0.41457657
  36     -34.09197547
  37       4.03240585
  38      -2.60505416
  39       1.11614875
  40      -0.01905050
  41       0.10183055
  42      -0.06248255
  43      -0.00112018
  44      -0.00040682
  45      -0.06941127
  46      -0.00000000
  47      -0.00000000
  48      13.06217697
  49       0.00000000
  50       0.00000000
  51      -1.86175395
  52      -0.00000000
  53      -0.00000000
  54       0.00775481
  55       0.00000000
  56       0.00000000
  57       0.00360348
  58       0.00403249
  59       0.00403249
  60       0.00000000
  61       0.00000000
  62       0.00000000
  63      -2.72249621
  64      -0.08428568
  65      -0.08428568
  66      -0.00000000
  67      -0.00000000
  68      -0.00000000
Ene=     2.09285E-02
Spin= Alpha
Occup=   0.0000000000
   1      -0.00000000
   2      -0.00000000
   3       0.00000000
   4      -0.00000000
   5      -0.00000000
   6      -0.00000000
   7       0.00000000
   8       0.00000000
   9       0.00000000
  10      -0.00000000
  11      -0.00000000
  12       2.75518554
  13      -4.99464727
  14      -0.00000000
  15      -0.62264544
  16       1.12874226
  17      -0.00000000
  18       0.80695026
  19      -1.46285318
  20       0.00000000
  21      -0.39074678
  22       0.70835241
  23      -0.00000000
  24      -0.00000000
  25      -0.00000000
  26       0.54545287
  27      -0.98880625
  28      -0.00000000
  29      -0.00000000
  30       0.00000000
  31       0.00000000
  32      -0.11722485
  33       0.21250720
  34       0.00000000
  35       0.00000000
  36       0.00000000
  37       0.00000000
  38      -0.00000000
  39       0.00000000
  40      -0.00000000
  41       0.00000000
  42      -0.00000000
  43       0.00000000
  44      -0.00000000
  45       0.00000000
  46      -2.75518554
  47       4.99464727
  48      -0.00000000
  49       0.62264544
  50      -1.12874226
  51       0.00000000
  52      -0.80695026
  53       1.46285318
  54      -0.00000000
  55       0.39074678
  56      -0.70835241
  57      -0.00000000
  58       0.00000000
  59       0.00000000
  60       0.54545287
  61      -0.98880625
  62       0.00000000
  63       0.00000000
  64       0.00000000
  65       0.00000000
  66      -0.11722485
  67       0.21250720
  68      -0.00000000
Ene=     2.09285E-02
Spin= Alpha
Occup=   0.0000000000
   1       0.00000000
   2      -0.00000000
   3      -0.00000000
   4       0.00000000
   5      -0.00000000
   6      -0.00000000
   7      -0.00000000
   8       0.00000000
   9       0.00000000
  10       0.00000000
  11      -0.00000000
  12      -4.99464727
  13      -2.75518554
  14      -0.00000000
  15       1.12874226
  16       0.62264544
  17       0.00000000
  18      -1.46285318
  19      -0.80695026
  20      -0.00000000
  21       0.70835241
  22       0.39074678
  23      -0.00000000
  24      -0.00000000
  25      -0.00000000
  26      -0.98880625
  27      -0.54545287
  28      -0.00000000
  29      -0.00000000
  30      -0.00000000
  31      -0.00000000
  32       0.21250720
  33       0.11722485
  34       0.00000000
  35      -0.00000000
  36       0.00000000
  37       0.00000000
  38      -0.00000000
  39       0.00000000
  40      -0.00000000
  41       0.00000000
  42      -0.00000000
  43       0.00000000
  44      -0.00000000
  45       0.00000000
  46       4.99464727
  47       2.75518554
  48      -0.00000000
  49      -1.12874226
  50      -0.62264544
  51       0.00000000
  52       1.46285318
  53       0.80695026
  54      -0.00000000
  55      -0.70835241
  56      -0.39074678
  57      -0.00000000
  58       0.00000000
  59       0.00000000
  60      -0.98880625
  61      -0.54545287
  62      -0.00000000
  63       0.00000000
  64       0.00000000
  65       0.00000000
  66       0.21250720
  67       0.11722485
  68       0.00000000
Ene=     2.61506E-02
Spin= Alpha
Occup=   0.0000000000
   1       1.04349392
   2      -1.32398763
   3       1.83016235
   4      -1.25970757
   5       0.43612175
   6       0.04642259
   7       0.03101458
   8      -0.02406025
   9      -0.00155289
  10      -0.00000059
  11      -3.66298133
  12       0.00000000
  13      -0.00000000
  14       0.96173872
  15      -0.00000000
  16       0.00000000
  17      -1.16106933
  18       0.00000000
  19       0.00000000
  20       0.62743327
  21      -0.00000000
  22      -0.00000000
  23      -1.25340159
  24       0.06302025
  25       0.06302025
  26       0.00000000
  27      -0.00000000
  28      -0.00000000
  29       0.67088482
  30       0.30717462
  31       0.30717462
  32      -0.00000000
  33       0.00000000
  34      -0.00000000
  35       1.04349392
  36      -1.32398762
  37       1.83016235
  38      -1.25970757
  39       0.43612175
  40       0.04642259
  41       0.03101458
  42      -0.02406025
  43      -0.00155289
  44      -0.00000059
  45       3.66298133
  46      -0.00000000
  47       0.00000000
  48      -0.96173872
  49       0.00000000
  50      -0.00000000
  51       1.16106933
  52      -0.00000000
  53      -0.00000000
  54      -0.62743327
  55       0.00000000
  56       0.00000000
  57      -1.25340159
  58       0.06302025
  59       0.06302025
  60       0.00000000
  61      -0.00000000
  62       0.00000000
  63       0.67088482
  64       0.30717462
  65       0.30717462
  66      -0.00000000
  67       0.00000000
  68       0.00000000
Ene=     2.79569E-02
Spin= Alpha
Occup=   0.0000000000
   1       0.74630292
   2     -53.07003773
   3       1.04128869
   4       0.41794931
   5      -0.17024576
   6      -0.01982596
   7      -0.01272357
   8       0.00982016
   9       0.00060976
  10       0.00000407
  11      -0.31762086
  12      -0.00000000
  13      -0.00000000
  14     -20.97447201
  15       0.00000000
  16       0.00000000
  17       3.02682149
  18      -0.00000000
  19      -0.00000000
  20      -0.75610669
  21       0.00000000
  22       0.00000000
  23      -0.44806457
  24      -0.38559654
  25      -0.38559654
  26      -0.00000000
  27      -0.00000000
  28       0.00000000
  29      -5.24287749
  30      -1.01047898
  31      -1.01047898
  32       0.00000000
  33       0.00000000
  34      -0.00000000
  35      -0.74630292
  36      53.07003773
  37      -1.04128869
  38      -0.41794931
  39       0.17024576
  40       0.01982596
  41       0.01272357
  42      -0.00982016
  43      -0.00060976
  44      -0.00000407
  45      -0.31762086
  46       0.00000000
  47       0.00000000
  48     -20.97447201
  49      -0.00000000
  50      -0.00000000
  51       3.02682149
  52       0.00000000
  53       0.00000000
  54      -0.75610669
  55      -0.00000000
  56      -0.00000000
  57       0.44806457
  58       0.38559654
  59       0.38559654
  60      -0.00000000
  61      -0.00000000
  62      -0.00000000
  63       5.24287749
  64       1.01047898
  65       1.01047898
  66       0.00000000
  67       0.00000000
  68       0.00000000
Ene=     2.99902E-02
Spin= Alpha
Occup=   0.0000000000
   1      -5.41142431
   2      -2.36478216
   3       4.78396936
   4      -2.09688469
   5       0.45258841
   6       0.10684590
   7       0.02177904
   8      -0.02418404
   9      -0.00283194
  10       0.00017691
  11       4.34645882
  12       0.00000000