[Molden Format]
[Title]
 Molden2AIM, Version 3.1.0 (02/25/2015)           Time: Thu Oct 17 19:54:16 2024

[Atoms] AU
E+       1       4     0.00000000     0.00000000     0.00000000
E+       2       4    30.40000000     0.00000000     0.00000000
[GTO]
    1 0
 S   1 1.0
    0.1000000000D-03      0.1000000000D+01
 S   1 1.0
    0.3000000000D-03      0.1000000000D+01
 S   1 1.0
    0.9000000000D-03      0.1000000000D+01
 S   1 1.0
    0.2700000000D-02      0.1000000000D+01
 S   1 1.0
    0.8100000000D-02      0.1000000000D+01
 S   1 1.0
    0.2430000000D-01      0.1000000000D+01
 S   1 1.0
    0.7290000000D-01      0.1000000000D+01
 S   1 1.0
    0.2187000000D+00      0.1000000000D+01
 S   1 1.0
    0.6561000000D+00      0.1000000000D+01
 S   1 1.0
    0.1968300000D+01      0.1000000000D+01
 P   1 1.0
    0.1000000000D-03      0.1000000000D+01
 P   1 1.0
    0.3000000000D-03      0.1000000000D+01
 P   1 1.0
    0.9000000000D-03      0.1000000000D+01
 P   1 1.0
    0.2700000000D-02      0.1000000000D+01
 D   1 1.0
    0.1000000000D-03      0.1000000000D+01
 D   1 1.0
    0.3000000000D-03      0.1000000000D+01

    2 0
 S   1 1.0
    0.1000000000D-03      0.1000000000D+01
 S   1 1.0
    0.3000000000D-03      0.1000000000D+01
 S   1 1.0
    0.9000000000D-03      0.1000000000D+01
 S   1 1.0
    0.2700000000D-02      0.1000000000D+01
 S   1 1.0
    0.8100000000D-02      0.1000000000D+01
 S   1 1.0
    0.2430000000D-01      0.1000000000D+01
 S   1 1.0
    0.7290000000D-01      0.1000000000D+01
 S   1 1.0
    0.2187000000D+00      0.1000000000D+01
 S   1 1.0
    0.6561000000D+00      0.1000000000D+01
 S   1 1.0
    0.1968300000D+01      0.1000000000D+01
 P   1 1.0
    0.1000000000D-03      0.1000000000D+01
 P   1 1.0
    0.3000000000D-03      0.1000000000D+01
 P   1 1.0
    0.9000000000D-03      0.1000000000D+01
 P   1 1.0
    0.2700000000D-02      0.1000000000D+01
 D   1 1.0
    0.1000000000D-03      0.1000000000D+01
 D   1 1.0
    0.3000000000D-03      0.1000000000D+01


[MO]
 Ene=         -0.00332126
 Spin= Alpha
 Occup=        1.00000000
    1       -0.0929232300
    2        0.0793617000
    3        0.0022936500
    4        0.2652157800
    5        0.2405660400
    6        0.1764849800
    7        0.1134739000
    8       -0.0913743200
    9       -0.0061565200
   10        0.0000766600
   11        0.3673735100
   12       -0.0000000000
   13       -0.0000000000
   14       -0.1233265500
   15       -0.0000000000
   16        0.0000000000
   17        0.0586759900
   18       -0.0000000000
   19       -0.0000000000
   20       -0.0282063600
   21        0.0000000000
   22        0.0000000000
   23        0.0958639600
   24       -0.0028264100
   25       -0.0028264100
   26       -0.0000000000
   27        0.0000000000
   28       -0.0000000000
   29       -0.0598804500
   30       -0.0112103900
   31       -0.0112103900
   32       -0.0000000000
   33        0.0000000000
   34        0.0000000000
   35       -0.0929232300
   36        0.0793617000
   37        0.0022936500
   38        0.2652157800
   39        0.2405660400
   40        0.1764849800
   41        0.1134739000
   42       -0.0913743200
   43       -0.0061565200
   44        0.0000766600
   45       -0.3673735100
   46        0.0000000000
   47        0.0000000000
   48        0.1233265500
   49        0.0000000000
   50       -0.0000000000
   51       -0.0586759900
   52        0.0000000000
   53        0.0000000000
   54        0.0282063600
   55       -0.0000000000
   56        0.0000000000
   57        0.0958639600
   58       -0.0028264100
   59       -0.0028264100
   60       -0.0000000000
   61       -0.0000000000
   62       -0.0000000000
   63       -0.0598804500
   64       -0.0112103900
   65       -0.0112103900
   66       -0.0000000000
   67        0.0000000000
   68       -0.0000000000
 Ene=         -0.00245758
 Spin= Alpha
 Occup=        0.00000000
    1        0.0025254500
    2        0.0088570700
    3        0.1052599800
    4        0.3455276900
    5        0.2478992400
    6        0.1992693100
    7        0.1183681700
    8       -0.0969567000
    9       -0.0068541700
   10        0.0001264800
   11       -0.0144107400
   12        0.0000000000
   13       -0.0000000000
   14       -0.0238859400
   15        0.0000000000
   16       -0.0000000000
   17        0.1120103900
   18       -0.0000000000
   19        0.0000000000
   20       -0.0384476400
   21        0.0000000000
   22       -0.0000000000
   23       -0.0239833400
   24       -0.0129176200
   25       -0.0129176200
   26        0.0000000000
   27       -0.0000000000
   28       -0.0000000000
   29       -0.0399556900
   30       -0.0518622800
   31       -0.0518622800
   32       -0.0000000000
   33        0.0000000000
   34        0.0000000000
   35       -0.0025254500
   36       -0.0088570700
   37       -0.1052599800
   38       -0.3455276900
   39       -0.2478992400
   40       -0.1992693100
   41       -0.1183681700
   42        0.0969567000
   43        0.0068541700
   44       -0.0001264800
   45       -0.0144107400
   46       -0.0000000000
   47        0.0000000000
   48       -0.0238859400
   49        0.0000000000
   50        0.0000000000
   51        0.1120103900
   52        0.0000000000
   53       -0.0000000000
   54       -0.0384476400
   55       -0.0000000000
   56        0.0000000000
   57        0.0239833400
   58        0.0129176200
   59        0.0129176200
   60        0.0000000000
   61       -0.0000000000
   62       -0.0000000000
   63        0.0399556900
   64        0.0518622800
   65        0.0518622800
   66       -0.0000000000
   67       -0.0000000000
   68        0.0000000000
 Ene=          0.00407645
 Spin= Alpha
 Occup=        0.00000000
    1        0.7953574900
    2       -0.0324916700
    3       -1.1160720200
    4        0.8596516200
    5        0.0108264800
    6        0.1150229600
    7        0.0341738700
    8       -0.0338808000
    9       -0.0034460600
   10        0.0001913100
   11       -2.1108628700
   12       -0.0000000000
   13       -0.0000000000
   14        0.6654576800
   15        0.0000000000
   16        0.0000000000
   17       -0.5072181400
   18       -0.0000000000
   19       -0.0000000000
   20        0.0538015800
   21        0.0000000000
   22        0.0000000000
   23       -0.5842968100
   24       -0.0218932200
   25       -0.0218932200
   26       -0.0000000000
   27       -0.0000000000
   28       -0.0000000000
   29        0.1626124300
   30       -0.0797254300
   31       -0.0797254300
   32        0.0000000000
   33        0.0000000000
   34        0.0000000000
   35        0.7953574900
   36       -0.0324916700
   37       -1.1160720200
   38        0.8596516200
   39        0.0108264800
   40        0.1150229600
   41        0.0341738700
   42       -0.0338808000
   43       -0.0034460600
   44        0.0001913100
   45        2.1108628700
   46        0.0000000000
   47        0.0000000000
   48       -0.6654576800
   49       -0.0000000000
   50       -0.0000000000
   51        0.5072181400
   52        0.0000000000
   53        0.0000000000
   54       -0.0538015800
   55       -0.0000000000
   56       -0.0000000000
   57       -0.5842968100
   58       -0.0218932200
   59       -0.0218932200
   60       -0.0000000000
   61       -0.0000000000
   62        0.0000000000
   63        0.1626124300
   64       -0.0797254300
   65       -0.0797254300
   66        0.0000000000
   67        0.0000000000
   68       -0.0000000000
 Ene=          0.00488283
 Spin= Alpha
 Occup=        0.00000000
    1       -0.0000000000
    2       -0.0000000000
    3       -0.0000000000
    4        0.0000000000
    5       -0.0000000000
    6        0.0000000000
    7        0.0000000000
    8       -0.0000000000
    9        0.0000000000
   10       -0.0000000000
   11        0.0000000000
   12       -0.0030969500
   13       -0.0273612300
   14        0.0000000000
   15        0.0107379400
   16        0.0948685700
   17       -0.0000000000
   18       -0.0406341200
   19       -0.3589982700
   20       -0.0000000000
   21       -0.0351039500
   22       -0.3101397700
   23        0.0000000000
   24       -0.0000000000
   25        0.0000000000
   26       -0.0011406100
   27       -0.0100771800
   28        0.0000000000
   29        0.0000000000
   30       -0.0000000000
   31       -0.0000000000
   32       -0.0021253000
   33       -0.0187768300
   34       -0.0000000000
   35       -0.0000000000
   36       -0.0000000000
   37       -0.0000000000
   38        0.0000000000
   39       -0.0000000000
   40        0.0000000000
   41       -0.0000000000
   42        0.0000000000
   43        0.0000000000
   44       -0.0000000000
   45       -0.0000000000
   46       -0.0030969500
   47       -0.0273612300
   48       -0.0000000000
   49        0.0107379400
   50        0.0948685700
   51       -0.0000000000
   52       -0.0406341200
   53       -0.3589982700
   54       -0.0000000000
   55       -0.0351039500
   56       -0.3101397700
   57        0.0000000000
   58       -0.0000000000
   59       -0.0000000000
   60        0.0011406100
   61        0.0100771800
   62       -0.0000000000
   63        0.0000000000
   64       -0.0000000000
   65       -0.0000000000
   66        0.0021253000
   67        0.0187768300
   68        0.0000000000
 Ene=          0.00488283
 Spin= Alpha
 Occup=        0.00000000
    1       -0.0000000000
    2        0.0000000000
    3        0.0000000000
    4       -0.0000000000
    5       -0.0000000000
    6       -0.0000000000
    7       -0.0000000000
    8       -0.0000000000
    9        0.0000000000
   10       -0.0000000000
   11        0.0000000000
   12        0.0273612300
   13       -0.0030969500
   14       -0.0000000000
   15       -0.0948685700
   16        0.0107379400
   17        0.0000000000
   18        0.3589982700
   19       -0.0406341200
   20       -0.0000000000
   21        0.3101397700
   22       -0.0351039500
   23        0.0000000000
   24       -0.0000000000
   25       -0.0000000000
   26        0.0100771800
   27       -0.0011406100
   28       -0.0000000000
   29       -0.0000000000
   30       -0.0000000000
   31       -0.0000000000
   32        0.0187768300
   33       -0.0021253000
   34        0.0000000000
   35       -0.0000000000
   36        0.0000000000
   37        0.0000000000
   38       -0.0000000000
   39       -0.0000000000
   40       -0.0000000000
   41        0.0000000000
   42       -0.0000000000
   43        0.0000000000
   44        0.0000000000
   45       -0.0000000000
   46        0.0273612300
   47       -0.0030969500
   48        0.0000000000
   49       -0.0948685700
   50        0.0107379400
   51       -0.0000000000
   52        0.3589982700
   53       -0.0406341200
   54        0.0000000000
   55        0.3101397700
   56       -0.0351039500
   57        0.0000000000
   58        0.0000000000
   59        0.0000000000
   60       -0.0100771800
   61        0.0011406100
   62        0.0000000000
   63        0.0000000000
   64        0.0000000000
   65        0.0000000000
   66       -0.0187768300
   67        0.0021253000
   68       -0.0000000000
 Ene=          0.00748569
 Spin= Alpha
 Occup=        0.00000000
    1       -0.0000000000
    2        0.0000000000
    3       -0.0000000000
    4        0.0000000000
    5        0.0000000000
    6        0.0000000000
    7        0.0000000000
    8       -0.0000000000
    9        0.0000000000
   10       -0.0000000000
   11       -0.0000000000
   12       -1.9124280700
   13        1.4520387000
   14        0.0000000000
   15        0.3898977500
   16       -0.2960355100
   17       -0.0000000000
   18       -0.2385694400
   19        0.1811373000
   20       -0.0000000000
   21       -0.5621346200
   22        0.4268088500
   23        0.0000000000
   24        0.0000000000
   25        0.0000000000
   26       -0.2883149700
   27        0.2189073200
   28       -0.0000000000
   29        0.0000000000
   30        0.0000000000
   31        0.0000000000
   32        0.0764452000
   33       -0.0580421200
   34        0.0000000000
   35        0.0000000000
   36       -0.0000000000
   37        0.0000000000
   38       -0.0000000000
   39        0.0000000000
   40       -0.0000000000
   41       -0.0000000000
   42        0.0000000000
   43       -0.0000000000
   44        0.0000000000
   45       -0.0000000000
   46        1.9124280700
   47       -1.4520387000
   48        0.0000000000
   49       -0.3898977500
   50        0.2960355100
   51       -0.0000000000
   52        0.2385694400
   53       -0.1811373000
   54        0.0000000000
   55        0.5621346200
   56       -0.4268088500
   57        0.0000000000
   58       -0.0000000000
   59       -0.0000000000
   60       -0.2883149700
   61        0.2189073200
   62        0.0000000000
   63       -0.0000000000
   64       -0.0000000000
   65       -0.0000000000
   66        0.0764452000
   67       -0.0580421200
   68       -0.0000000000
 Ene=          0.00748569
 Spin= Alpha
 Occup=        0.00000000
    1        0.0000000000
    2       -0.0000000000
    3        0.0000000000
    4       -0.0000000000
    5       -0.0000000000
    6       -0.0000000000
    7       -0.0000000000
    8        0.0000000000
    9       -0.0000000000
   10        0.0000000000
   11        0.0000000000
   12        1.4520387000
   13        1.9124280700
   14       -0.0000000000
   15       -0.2960355100
   16       -0.3898977500
   17        0.0000000000
   18        0.1811373000
   19        0.2385694400
   20        0.0000000000
   21        0.4268088500
   22        0.5621346200
   23        0.0000000000
   24        0.0000000000
   25        0.0000000000
   26        0.2189073200
   27        0.2883149700
   28        0.0000000000
   29       -0.0000000000
   30       -0.0000000000
   31       -0.0000000000
   32       -0.0580421200
   33       -0.0764452000
   34        0.0000000000
   35       -0.0000000000
   36        0.0000000000
   37       -0.0000000000
   38        0.0000000000
   39        0.0000000000
   40        0.0000000000
   41        0.0000000000
   42       -0.0000000000
   43       -0.0000000000
   44        0.0000000000
   45        0.0000000000
   46       -1.4520387000
   47       -1.9124280700
   48       -0.0000000000
   49        0.2960355100
   50        0.3898977500
   51        0.0000000000
   52       -0.1811373000
   53       -0.2385694400
   54        0.0000000000
   55       -0.4268088500
   56       -0.5621346200
   57        0.0000000000
   58       -0.0000000000
   59       -0.0000000000
   60        0.2189073200
   61        0.2883149700
   62       -0.0000000000
   63        0.0000000000
   64       -0.0000000000
   65       -0.0000000000
   66       -0.0580421200
   67       -0.0764452000
   68       -0.0000000000
 Ene=          0.00795868
 Spin= Alpha
 Occup=        0.00000000
    1       -0.0197213100
    2        0.0076248700
    3        3.8877990200
    4        0.0682673400
    5       -0.5113805300
    6       -0.0297612700
    7       -0.0807648800
    8        0.0546887800
    9        0.0020128300
   10        0.0002012600
   11        0.1183242000
   12        0.0000000000
   13        0.0000000000
   14       -0.0252624200
   15       -0.0000000000
   16       -0.0000000000
   17        1.3455178400
   18        0.0000000000
   19        0.0000000000
   20        0.1074322200
   21       -0.0000000000
   22       -0.0000000000
   23        0.1006697300
   24        0.1923328200
   25        0.1923328200
   26        0.0000000000
   27        0.0000000000
   28        0.0000000000
   29        0.2709565900
   30        0.1131716200
   31        0.1131716200
   32       -0.0000000000
   33       -0.0000000000
   34       -0.0000000000
   35        0.0197213100
   36       -0.0076248700
   37       -3.8877990200
   38       -0.0682673400
   39        0.5113805300
   40        0.0297612700
   41        0.0807648800
   42       -0.0546887800
   43       -0.0020128300
   44       -0.0002012600
   45        0.1183242000
   46       -0.0000000000
   47       -0.0000000000
   48       -0.0252624200
   49        0.0000000000
   50        0.0000000000
   51        1.3455178400
   52       -0.0000000000
   53       -0.0000000000
   54        0.1074322200
   55        0.0000000000
   56        0.0000000000
   57       -0.1006697300
   58       -0.1923328200
   59       -0.1923328200
   60        0.0000000000
   61        0.0000000000
   62       -0.0000000000
   63       -0.2709565900
   64       -0.1131716200
   65       -0.1131716200
   66       -0.0000000000
   67       -0.0000000000
   68        0.0000000000
 Ene=          0.00831601
 Spin= Alpha
 Occup=        0.00000000
    1       -0.0877944600
    2        0.0996973600
    3        0.1294340500
    4        0.0280077900
    5        0.0177054700
    6       -0.0242408700
    7        0.0019728700
    8        0.0012327700
    9        0.0005688100
   10       -0.0000701100
   11        0.4657728500
   12       -0.0000000000
   13        0.0000000000
   14       -0.1545425000
   15        0.0000000000
   16       -0.0000000000
   17        0.1171899700
   18       -0.0000000000
   19        0.0000000000
   20       -0.6537835600
   21        0.0000000000
   22       -0.0000000000
   23        0.1171061200
   24       -0.0083029300
   25       -0.0083029300
   26       -0.0000000000
   27        0.0000000000
   28        0.0000000000
   29       -0.0846816600
   30       -0.0243803200
   31       -0.0243803200
   32        0.0000000000
   33       -0.0000000000
   34       -0.0000000000
   35       -0.0877944600
   36        0.0996973600
   37        0.1294340500
   38        0.0280077900
   39        0.0177054700
   40       -0.0242408700
   41        0.0019728700
   42        0.0012327700
   43        0.0005688100
   44       -0.0000701100
   45       -0.4657728500
   46        0.0000000000
   47       -0.0000000000
   48        0.1545425000
   49       -0.0000000000
   50        0.0000000000
   51       -0.1171899700
   52       -0.0000000000
   53       -0.0000000000
   54        0.6537835600
   55       -0.0000000000
   56        0.0000000000
   57        0.1171061200
   58       -0.0083029300
   59       -0.0083029300
   60       -0.0000000000
   61        0.0000000000
   62       -0.0000000000
   63       -0.0846816600
   64       -0.0243803200
   65       -0.0243803200
   66        0.0000000000
   67       -0.0000000000
   68        0.0000000000
 Ene=          0.01179300
 Spin= Alpha
 Occup=        0.00000000
    1       -0.0000000000
    2        0.0000000000
    3        0.0000000000
    4       -0.0000000000
    5        0.0000000000
    6        0.0000000000
    7        0.0000000000
    8       -0.0000000000
    9        0.0000000000
   10       -0.0000000000
   11        0.0000000000
   12        0.0499423400
   13       -0.0300764500
   14       -0.0000000000
   15       -0.1759755100
   16        0.1059765700
   17        0.0000000000
   18        0.7891946800
   19       -0.4752715100
   20        0.0000000000
   21       -0.7908742400
   22        0.4762829800
   23        0.0000000000
   24        0.0000000000
   25        0.0000000000
   26        0.0135801200
   27       -0.0081782700
   28        0.0000000000
   29        0.0000000000
   30       -0.0000000000
   31        0.0000000000
   32        0.0386086700
   33       -0.0232510400
   34       -0.0000000000
   35       -0.0000000000
   36        0.0000000000
   37       -0.0000000000
   38       -0.0000000000
   39        0.0000000000
   40       -0.0000000000
   41        0.0000000000
   42       -0.0000000000
   43        0.0000000000
   44        0.0000000000
   45       -0.0000000000
   46        0.0499423400
   47       -0.0300764500
   48        0.0000000000
   49       -0.1759755100
   50        0.1059765700
   51        0.0000000000
   52        0.7891946800
   53       -0.4752715100
   54        0.0000000000
   55       -0.7908742400
   56        0.4762829800
   57        0.0000000000
   58       -0.0000000000
   59       -0.0000000000
   60       -0.0135801200
   61        0.0081782700
   62       -0.0000000000
   63       -0.0000000000
   64       -0.0000000000
   65       -0.0000000000
   66       -0.0386086700
   67        0.0232510400
   68        0.0000000000
 Ene=          0.01179300
 Spin= Alpha
 Occup=        0.00000000
    1       -0.0000000000
    2       -0.0000000000
    3        0.0000000000
    4       -0.0000000000
    5        0.0000000000
    6        0.0000000000
    7        0.0000000000
    8       -0.0000000000
    9       -0.0000000000
   10        0.0000000000
   11       -0.0000000000
   12        0.0300764500
   13        0.0499423400
   14        0.0000000000
   15       -0.1059765700
   16       -0.1759755100
   17        0.0000000000
   18        0.4752715100
   19        0.7891946800
   20        0.0000000000
   21       -0.4762829800
   22       -0.7908742400
   23       -0.0000000000
   24        0.0000000000
   25        0.0000000000
   26        0.0081782700
   27        0.0135801200
   28       -0.0000000000
   29        0.0000000000
   30        0.0000000000
   31        0.0000000000
   32        0.0232510400
   33        0.0386086700
   34        0.0000000000
   35       -0.0000000000
   36       -0.0000000000
   37       -0.0000000000
   38        0.0000000000
   39       -0.0000000000
   40       -0.0000000000
   41       -0.0000000000
   42        0.0000000000
   43        0.0000000000
   44       -0.0000000000
   45        0.0000000000
   46        0.0300764500
   47        0.0499423400
   48       -0.0000000000
   49       -0.1059765700
   50       -0.1759755100
   51        0.0000000000
   52        0.4752715100
   53        0.7891946800
   54        0.0000000000
   55       -0.4762829800
   56       -0.7908742400
   57       -0.0000000000
   58       -0.0000000000
   59       -0.0000000000
   60       -0.0081782700
   61       -0.0135801200
   62        0.0000000000
   63        0.0000000000
   64        0.0000000000
   65        0.0000000000
   66       -0.0232510400
   67       -0.0386086700
   68       -0.0000000000
 Ene=          0.01201710
 Spin= Alpha
 Occup=        0.00000000
    1        0.0163312300
    2       -0.0098842100
    3       -3.5189729300
    4        0.0713695100
    5       -0.0227109300
    6       -0.0741017100
    7       -0.0133512100
    8        0.0160336000
    9        0.0020134300
   10       -0.0001426300
   11       -0.0980532200
   12       -0.0000000000
   13       -0.0000000000
   14        0.0291789500
   15        0.0000000000
   16        0.0000000000
   17       -1.2461585400
   18        0.0000000000
   19        0.0000000000
   20       -1.3355296900
   21       -0.0000000000
   22       -0.0000000000
   23       -0.0819600800
   24       -0.1621794900
   25       -0.1621794900
   26       -0.0000000000
   27       -0.0000000000
   28       -0.0000000000
   29       -0.2200799200
   30       -0.0844729000
   31       -0.0844729000
   32        0.0000000000
   33        0.0000000000
   34        0.0000000000
   35       -0.0163312300
   36        0.0098842100
   37        3.5189729300
   38       -0.0713695100
   39        0.0227109300
   40        0.0741017100
   41        0.0133512100
   42       -0.0160336000
   43       -0.0020134300
   44        0.0001426300
   45       -0.0980532200
   46        0.0000000000
   47        0.0000000000
   48        0.0291789500
   49       -0.0000000000
   50       -0.0000000000
   51       -1.2461585400
   52        0.0000000000
   53        0.0000000000
   54       -1.3355296900
   55       -0.0000000000
   56       -0.0000000000
   57        0.0819600800
   58        0.1621794900
   59        0.1621794900
   60       -0.0000000000
   61       -0.0000000000
   62        0.0000000000
   63        0.2200799200
   64        0.0844729000
   65        0.0844729000
   66        0.0000000000
   67        0.0000000000
   68       -0.0000000000
 Ene=          0.01218820
 Spin= Alpha
 Occup=        0.00000000
    1        0.5072101100
    2       -0.5132384700
    3       -0.2159206000
    4        1.6739521100
    5       -1.1162310200
    6        0.0424753400
    7       -0.1324578100
    8        0.0802464800
    9        0.0011045000
   10        0.0005622800
   11       -2.7271494200
   12       -0.0000000000
   13       -0.0000000000
   14        0.5348384800
   15        0.0000000000
   16        0.0000000000
   17       -0.6054334800
   18       -0.0000000000
   19       -0.0000000000
   20        0.1561235300
   21       -0.0000000000
   22        0.0000000000
   23       -0.6796636100
   24        0.0469655200
   25        0.0469655200
   26       -0.0000000000
   27       -0.0000000000
   28       -0.0000000000
   29        0.3345702500
   30        0.1664259700
   31        0.1664259700
   32        0.0000000000
   33        0.0000000000
   34        0.0000000000
   35        0.5072101100
   36       -0.5132384700
   37       -0.2159206000
   38        1.6739521100
   39       -1.1162310200
   40        0.0424753400
   41       -0.1324578100
   42        0.0802464800
   43        0.0011045000
   44        0.0005622800
   45        2.7271494200
   46        0.0000000000
   47        0.0000000000
   48       -0.5348384800
   49       -0.0000000000
   50       -0.0000000000
   51        0.6054334800
   52        0.0000000000
   53        0.0000000000
   54       -0.1561235300
   55       -0.0000000000
   56       -0.0000000000
   57       -0.6796636100
   58        0.0469655200
   59        0.0469655200
   60       -0.0000000000
   61       -0.0000000000
   62        0.0000000000
   63        0.3345702500
   64        0.1664259700
   65        0.1664259700
   66        0.0000000000
   67        0.0000000000
   68       -0.0000000000
 Ene=          0.01733290
 Spin= Alpha
 Occup=        0.00000000
    1        0.0099940200
    2       -0.0132829500
    3       -5.2108229900
    4        3.1867242500
    5       -1.4253875900
    6        0.1230667000
    7       -0.1222189300
    8        0.0661566000
    9       -0.0007003000
   10        0.0006943800
   11       -0.0610781200
   12       -0.0000000000
   13        0.0000000000
   14        0.0047277700
   15        0.0000000000
   16       -0.0000000000
   17       -1.6651935500
   18       -0.0000000000
   19        0.0000000000
   20        0.5902057500
   21        0.0000000000
   22       -0.0000000000
   23       -0.0279893500
   24       -0.1116251600
   25       -0.1116251600
   26       -0.0000000000
   27        0.0000000000
   28       -0.0000000000
   29       -0.1737977100
   30       -0.0297978400
   31       -0.0297978400
   32        0.0000000000
   33       -0.0000000000
   34        0.0000000000
   35       -0.0099940200
   36        0.0132829500
   37        5.2108229900
   38       -3.1867242500
   39        1.4253875900
   40       -0.1230667000
   41        0.1222189300
   42       -0.0661566000
   43        0.0007003000
   44       -0.0006943800
   45       -0.0610781200
   46        0.0000000000
   47       -0.0000000000
   48        0.0047277700
   49       -0.0000000000
   50        0.0000000000
   51       -1.6651935500
   52        0.0000000000
   53       -0.0000000000
   54        0.5902057500
   55       -0.0000000000
   56        0.0000000000
   57        0.0279893500
   58        0.1116251600
   59        0.1116251600
   60       -0.0000000000
   61        0.0000000000
   62        0.0000000000
   63        0.1737977100
   64        0.0297978400
   65        0.0297978400
   66        0.0000000000
   67       -0.0000000000
   68       -0.0000000000
 Ene=          0.01755660
 Spin= Alpha
 Occup=        0.00000000
    1       -0.0000000000
    2        0.0000000000
    3        0.0000000000
    4       -0.0000000000
    5        0.0000000000
    6       -0.0000000000
    7        0.0000000000
    8       -0.0000000000
    9       -0.0000000000
   10        0.0000000000
   11       -0.0000000000
   12      -12.9484391000
   13        0.2698550700
   14        0.0000000000
   15        2.7734979600
   16       -0.0578017500
   17        0.0000000000
   18       -1.9566005700
   19        0.0407770100
   20       -0.0000000000
   21        0.9383344700
   22       -0.0195555900
   23       -0.0000000000
   24        0.0000000000
   25        0.0000000000
   26       -1.9549835000
   27        0.0407433000
   28       -0.0000000000
   29        0.0000000000
   30        0.0000000000
   31        0.0000000000
   32        0.5559211000
   33       -0.0115858100
   34        0.0000000000
   35        0.0000000000
   36       -0.0000000000
   37       -0.0000000000
   38        0.0000000000
   39       -0.0000000000
   40        0.0000000000
   41       -0.0000000000
   42        0.0000000000
   43       -0.0000000000
   44        0.0000000000
   45        0.0000000000
   46       12.9484391000
   47       -0.2698550700
   48        0.0000000000
   49       -2.7734979600
   50        0.0578017500
   51        0.0000000000
   52        1.9566005700
   53       -0.0407770100
   54       -0.0000000000
   55       -0.9383344700
   56        0.0195555900
   57       -0.0000000000
   58       -0.0000000000
   59       -0.0000000000
   60       -1.9549835000
   61        0.0407433000
   62        0.0000000000
   63       -0.0000000000
   64        0.0000000000
   65        0.0000000000
   66        0.5559211000
   67       -0.0115858100
   68       -0.0000000000
 Ene=          0.01755660
 Spin= Alpha
 Occup=        0.00000000
    1        0.0000000000
    2       -0.0000000000
    3        0.0000000000
    4       -0.0000000000
    5        0.0000000000
    6       -0.0000000000
    7        0.0000000000
    8       -0.0000000000
    9        0.0000000000
   10       -0.0000000000
   11        0.0000000000
   12        0.2698550700
   13       12.9484391000
   14       -0.0000000000
   15       -0.0578017500
   16       -2.7734979600