[Molden Format]
[Title]
 Molden2AIM, Version 3.1.0 (02/25/2015)           Time: Thu Oct 17 19:55:36 2024

[Atoms] AU
E+       1       4     0.00000000     0.00000000     0.00000000
E+       2       4    48.20000000     0.00000000     0.00000000
[GTO]
    1 0
 S   1 1.0
    0.1000000000D-03      0.1000000000D+01
 S   1 1.0
    0.3000000000D-03      0.1000000000D+01
 S   1 1.0
    0.9000000000D-03      0.1000000000D+01
 S   1 1.0
    0.2700000000D-02      0.1000000000D+01
 S   1 1.0
    0.8100000000D-02      0.1000000000D+01
 S   1 1.0
    0.2430000000D-01      0.1000000000D+01
 S   1 1.0
    0.7290000000D-01      0.1000000000D+01
 S   1 1.0
    0.2187000000D+00      0.1000000000D+01
 S   1 1.0
    0.6561000000D+00      0.1000000000D+01
 S   1 1.0
    0.1968300000D+01      0.1000000000D+01
 P   1 1.0
    0.1000000000D-03      0.1000000000D+01
 P   1 1.0
    0.3000000000D-03      0.1000000000D+01
 P   1 1.0
    0.9000000000D-03      0.1000000000D+01
 P   1 1.0
    0.2700000000D-02      0.1000000000D+01
 D   1 1.0
    0.1000000000D-03      0.1000000000D+01
 D   1 1.0
    0.3000000000D-03      0.1000000000D+01

    2 0
 S   1 1.0
    0.1000000000D-03      0.1000000000D+01
 S   1 1.0
    0.3000000000D-03      0.1000000000D+01
 S   1 1.0
    0.9000000000D-03      0.1000000000D+01
 S   1 1.0
    0.2700000000D-02      0.1000000000D+01
 S   1 1.0
    0.8100000000D-02      0.1000000000D+01
 S   1 1.0
    0.2430000000D-01      0.1000000000D+01
 S   1 1.0
    0.7290000000D-01      0.1000000000D+01
 S   1 1.0
    0.2187000000D+00      0.1000000000D+01
 S   1 1.0
    0.6561000000D+00      0.1000000000D+01
 S   1 1.0
    0.1968300000D+01      0.1000000000D+01
 P   1 1.0
    0.1000000000D-03      0.1000000000D+01
 P   1 1.0
    0.3000000000D-03      0.1000000000D+01
 P   1 1.0
    0.9000000000D-03      0.1000000000D+01
 P   1 1.0
    0.2700000000D-02      0.1000000000D+01
 D   1 1.0
    0.1000000000D-03      0.1000000000D+01
 D   1 1.0
    0.3000000000D-03      0.1000000000D+01


[MO]
 Ene=         -0.00064852
 Spin= Alpha
 Occup=        1.00000000
    1        0.0310500900
    2        0.0647523500
    3       -0.1118767300
    4       -0.2276528300
    5       -0.2359243800
    6       -0.1828564900
    7       -0.1093780500
    8        0.0891255500
    9        0.0062168600
   10       -0.0001036200
   11        0.0016192100
   12       -0.0000000000
   13       -0.0000000000
   14       -0.0123888800
   15        0.0000000000
   16        0.0000000000
   17       -0.0022981200
   18       -0.0000000000
   19        0.0000000000
   20       -0.1676587000
   21        0.0000000000
   22       -0.0000000000
   23       -0.0022434000
   24       -0.0048112100
   25       -0.0048112100
   26       -0.0000000000
   27       -0.0000000000
   28        0.0000000000
   29       -0.0321124600
   30       -0.0183163600
   31       -0.0183163600
   32       -0.0000000000
   33        0.0000000000
   34       -0.0000000000
   35        0.0310500900
   36        0.0647523500
   37       -0.1118767300
   38       -0.2276528300
   39       -0.2359243800
   40       -0.1828564900
   41       -0.1093780500
   42        0.0891255500
   43        0.0062168600
   44       -0.0001036200
   45       -0.0016192100
   46        0.0000000000
   47        0.0000000000
   48        0.0123888800
   49       -0.0000000000
   50       -0.0000000000
   51        0.0022981200
   52        0.0000000000
   53       -0.0000000000
   54        0.1676587000
   55       -0.0000000000
   56        0.0000000000
   57       -0.0022434000
   58       -0.0048112100
   59       -0.0048112100
   60       -0.0000000000
   61       -0.0000000000
   62       -0.0000000000
   63       -0.0321124600
   64       -0.0183163600
   65       -0.0183163600
   66        0.0000000000
   67        0.0000000000
   68        0.0000000000
 Ene=         -0.00029162
 Spin= Alpha
 Occup=        0.00000000
    1       -0.0207667500
    2        1.3934123500
    3       -0.0079442700
    4        0.3051563500
    5        0.2376385500
    6        0.2071220300
    7        0.1153876800
    8       -0.0955506800
    9       -0.0069471900
   10        0.0001511900
   11        0.0182710800
   12        0.0000000000
   13        0.0000000000
   14        0.6934973900
   15       -0.0000000000
   16       -0.0000000000
   17       -0.0900842100
   18        0.0000000000
   19        0.0000000000
   20        0.1892672500
   21       -0.0000000000
   22       -0.0000000000
   23        0.0171469100
   24        0.0155362900
   25        0.0155362900
   26       -0.0000000000
   27        0.0000000000
   28       -0.0000000000
   29        0.2108559400
   30        0.0403421800
   31        0.0403421800
   32       -0.0000000000
   33       -0.0000000000
   34       -0.0000000000
   35        0.0207667500
   36       -1.3934123500
   37        0.0079442700
   38       -0.3051563500
   39       -0.2376385500
   40       -0.2071220300
   41       -0.1153876800
   42        0.0955506800
   43        0.0069471900
   44       -0.0001511900
   45        0.0182710800
   46       -0.0000000000
   47       -0.0000000000
   48        0.6934973900
   49        0.0000000000
   50        0.0000000000
   51       -0.0900842100
   52       -0.0000000000
   53        0.0000000000
   54        0.1892672500
   55        0.0000000000
   56       -0.0000000000
   57       -0.0171469100
   58       -0.0155362900
   59       -0.0155362900
   60        0.0000000000
   61        0.0000000000
   62        0.0000000000
   63       -0.2108559400
   64       -0.0403421800
   65       -0.0403421800
   66       -0.0000000000
   67       -0.0000000000
   68       -0.0000000000
 Ene=          0.00505247
 Spin= Alpha
 Occup=        0.00000000
    1       -0.6119044800
    2       -0.1587984300
    3        0.9327103300
    4       -0.5447623500
    5       -0.1065329600
    6       -0.1421251100
    7       -0.0548724900
    8        0.0498328200
    9        0.0044200700
   10       -0.0001890300
   11        0.8530329500
   12        0.0000000000
   13        0.0000000000
   14       -0.2874761500
   15        0.0000000000
   16        0.0000000000
   17        0.4696269600
   18       -0.0000000000
   19       -0.0000000000
   20       -0.0595863100
   21        0.0000000000
   22        0.0000000000
   23        0.3874172300
   24        0.0295888100
   25        0.0295888100
   26        0.0000000000
   27        0.0000000000
   28        0.0000000000
   29        0.0144740900
   30        0.0969678300
   31        0.0969678300
   32        0.0000000000
   33        0.0000000000
   34       -0.0000000000
   35       -0.6119044800
   36       -0.1587984300
   37        0.9327103300
   38       -0.5447623500
   39       -0.1065329600
   40       -0.1421251100
   41       -0.0548724900
   42        0.0498328200
   43        0.0044200700
   44       -0.0001890300
   45       -0.8530329500
   46       -0.0000000000
   47       -0.0000000000
   48        0.2874761500
   49       -0.0000000000
   50       -0.0000000000
   51       -0.4696269600
   52        0.0000000000
   53       -0.0000000000
   54        0.0595863100
   55        0.0000000000
   56        0.0000000000
   57        0.3874172300
   58        0.0295888100
   59        0.0295888100
   60        0.0000000000
   61       -0.0000000000
   62       -0.0000000000
   63        0.0144740900
   64        0.0969678300
   65        0.0969678300
   66        0.0000000000
   67        0.0000000000
   68        0.0000000000
 Ene=          0.01099290
 Spin= Alpha
 Occup=        0.00000000
    1        0.0000000000
    2       -0.0000000000
    3        0.0000000000
    4       -0.0000000000
    5        0.0000000000
    6       -0.0000000000
    7        0.0000000000
    8       -0.0000000000
    9        0.0000000000
   10       -0.0000000000
   11       -0.0000000000
   12        0.0424504900
   13       -0.0091121500
   14       -0.0000000000
   15       -0.1150894200
   16        0.0247043600
   17        0.0000000000
   18        0.3851388500
   19       -0.0826714500
   20       -0.0000000000
   21        0.3431569200
   22       -0.0736598800
   23       -0.0000000000
   24       -0.0000000000
   25       -0.0000000000
   26       -0.0396217900
   27        0.0085049600
   28        0.0000000000
   29       -0.0000000000
   30       -0.0000000000
   31       -0.0000000000
   32        0.0727458200
   33       -0.0156151500
   34       -0.0000000000
   35       -0.0000000000
   36        0.0000000000
   37       -0.0000000000
   38        0.0000000000
   39        0.0000000000
   40        0.0000000000
   41        0.0000000000
   42       -0.0000000000
   43       -0.0000000000
   44        0.0000000000
   45       -0.0000000000
   46        0.0424504900
   47       -0.0091121500
   48       -0.0000000000
   49       -0.1150894200
   50        0.0247043600
   51        0.0000000000
   52        0.3851388500
   53       -0.0826714500
   54       -0.0000000000
   55        0.3431569200
   56       -0.0736598800
   57        0.0000000000
   58        0.0000000000
   59        0.0000000000
   60        0.0396217900
   61       -0.0085049600
   62       -0.0000000000
   63        0.0000000000
   64        0.0000000000
   65        0.0000000000
   66       -0.0727458200
   67        0.0156151500
   68        0.0000000000
 Ene=          0.01099290
 Spin= Alpha
 Occup=        0.00000000
    1       -0.0000000000
    2        0.0000000000
    3       -0.0000000000
    4       -0.0000000000
    5        0.0000000000
    6        0.0000000000
    7        0.0000000000
    8       -0.0000000000
    9        0.0000000000
   10       -0.0000000000
   11        0.0000000000
   12       -0.0091121500
   13       -0.0424504900
   14        0.0000000000
   15        0.0247043600
   16        0.1150894200
   17       -0.0000000000
   18       -0.0826714500
   19       -0.3851388500
   20       -0.0000000000
   21       -0.0736598800
   22       -0.3431569200
   23       -0.0000000000
   24        0.0000000000
   25        0.0000000000
   26        0.0085049600
   27        0.0396217900
   28       -0.0000000000
   29        0.0000000000
   30       -0.0000000000
   31       -0.0000000000
   32       -0.0156151500
   33       -0.0727458200
   34        0.0000000000
   35        0.0000000000
   36       -0.0000000000
   37        0.0000000000
   38        0.0000000000
   39       -0.0000000000
   40       -0.0000000000
   41       -0.0000000000
   42        0.0000000000
   43        0.0000000000
   44       -0.0000000000
   45        0.0000000000
   46       -0.0091121500
   47       -0.0424504900
   48        0.0000000000
   49        0.0247043600
   50        0.1150894200
   51       -0.0000000000
   52       -0.0826714500
   53       -0.3851388500
   54       -0.0000000000
   55       -0.0736598800
   56       -0.3431569200
   57        0.0000000000
   58       -0.0000000000
   59       -0.0000000000
   60       -0.0085049600
   61       -0.0396217900
   62        0.0000000000
   63       -0.0000000000
   64        0.0000000000
   65        0.0000000000
   66        0.0156151500
   67        0.0727458200
   68       -0.0000000000
 Ene=          0.01110230
 Spin= Alpha
 Occup=        0.00000000
    1       -0.0386307800
    2        5.8956901500
    3       -1.1014809700
    4       -0.3156444000
    5        0.5910452500
    6        0.0658772600
    7        0.0936851100
    8       -0.0662339800
    9       -0.0029954700
   10       -0.0001660200
   11       -0.0960588900
   12       -0.0000000000
   13        0.0000000000
   14        2.7143495200
   15        0.0000000000
   16       -0.0000000000
   17       -0.3614446600
   18        0.0000000000
   19        0.0000000000
   20       -0.4583212300
   21        0.0000000000
   22        0.0000000000
   23       -0.0849120800
   24       -0.0653163200
   25       -0.0653163200
   26       -0.0000000000
   27        0.0000000000
   28       -0.0000000000
   29        0.5488131300
   30       -0.1208608100
   31       -0.1208608100
   32        0.0000000000
   33       -0.0000000000
   34       -0.0000000000
   35        0.0386307800
   36       -5.8956901500
   37        1.1014809700
   38        0.3156444000
   39       -0.5910452500
   40       -0.0658772600
   41       -0.0936851100
   42        0.0662339800
   43        0.0029954700
   44        0.0001660200
   45       -0.0960588900
   46        0.0000000000
   47       -0.0000000000
   48        2.7143495200
   49       -0.0000000000
   50        0.0000000000
   51       -0.3614446600
   52        0.0000000000
   53        0.0000000000
   54       -0.4583212300
   55        0.0000000000
   56        0.0000000000
   57        0.0849120800
   58        0.0653163200
   59        0.0653163200
   60       -0.0000000000
   61        0.0000000000
   62        0.0000000000
   63       -0.5488131300
   64        0.1208608100
   65        0.1208608100
   66        0.0000000000
   67       -0.0000000000
   68       -0.0000000000
 Ene=          0.01210470
 Spin= Alpha
 Occup=        0.00000000
    1       -0.0784175700
    2        0.2960107600
    3        0.4530906900
    4       -1.4057960900
    5        0.8162444200
    6       -0.0440491100
    7        0.0982384700
    8       -0.0578268800
    9       -0.0003344300
   10       -0.0004706500
   11        0.9115557600
   12       -0.0000000000
   13        0.0000000000
   14       -0.2374766700
   15        0.0000000000
   16       -0.0000000000
   17        0.6595523100
   18       -0.0000000000
   19       -0.0000000000
   20       -0.8195678000
   21        0.0000000000
   22       -0.0000000000
   23        0.3306134000
   24       -0.0521213000
   25       -0.0521213000
   26       -0.0000000000
   27        0.0000000000
   28        0.0000000000
   29       -0.2032564200
   30       -0.1710207900
   31       -0.1710207900
   32        0.0000000000
   33       -0.0000000000
   34       -0.0000000000
   35       -0.0784175700
   36        0.2960107600
   37        0.4530906900
   38       -1.4057960900
   39        0.8162444200
   40       -0.0440491100
   41        0.0982384700
   42       -0.0578268800
   43       -0.0003344300
   44       -0.0004706500
   45       -0.9115557600
   46        0.0000000000
   47       -0.0000000000
   48        0.2374766700
   49       -0.0000000000
   50        0.0000000000
   51       -0.6595523100
   52        0.0000000000
   53       -0.0000000000
   54        0.8195678000
   55       -0.0000000000
   56        0.0000000000
   57        0.3306134000
   58       -0.0521213000
   59       -0.0521213000
   60       -0.0000000000
   61        0.0000000000
   62       -0.0000000000
   63       -0.2032564200
   64       -0.1710207900
   65       -0.1710207900
   66        0.0000000000
   67       -0.0000000000
   68        0.0000000000
 Ene=          0.01319320
 Spin= Alpha
 Occup=        0.00000000
    1       -0.0000000000
    2        0.0000000000
    3       -0.0000000000
    4        0.0000000000
    5       -0.0000000000
    6       -0.0000000000
    7       -0.0000000000
    8        0.0000000000
    9        0.0000000000
   10        0.0000000000
   11        0.0000000000
   12       -0.0318968100
   13       -0.1029269000
   14        0.0000000000
   15        0.0274975900
   16        0.0887311900
   17       -0.0000000000
   18       -0.0031680200
   19       -0.0102227900
   20        0.0000000000
   21        0.2152734400
   22        0.6946597200
   23        0.0000000000
   24        0.0000000000
   25        0.0000000000
   26       -0.0090396500
   27       -0.0291697800
   28        0.0000000000
   29        0.0000000000
   30        0.0000000000
   31        0.0000000000
   32        0.0137151000
   33        0.0442568800
   34       -0.0000000000
   35        0.0000000000
   36       -0.0000000000
   37        0.0000000000
   38       -0.0000000000
   39        0.0000000000
   40        0.0000000000
   41        0.0000000000
   42       -0.0000000000
   43        0.0000000000
   44       -0.0000000000
   45       -0.0000000000
   46        0.0318968100
   47        0.1029269000
   48        0.0000000000
   49       -0.0274975900
   50       -0.0887311900
   51       -0.0000000000
   52        0.0031680200
   53        0.0102227900
   54        0.0000000000
   55       -0.2152734400
   56       -0.6946597200
   57        0.0000000000
   58       -0.0000000000
   59       -0.0000000000
   60       -0.0090396500
   61       -0.0291697800
   62       -0.0000000000
   63       -0.0000000000
   64       -0.0000000000
   65       -0.0000000000
   66        0.0137151000
   67        0.0442568800
   68        0.0000000000
 Ene=          0.01319320
 Spin= Alpha
 Occup=        0.00000000
    1        0.0000000000
    2       -0.0000000000
    3        0.0000000000
    4       -0.0000000000
    5        0.0000000000
    6        0.0000000000
    7        0.0000000000
    8       -0.0000000000
    9       -0.0000000000
   10        0.0000000000
   11        0.0000000000
   12        0.1029269000
   13       -0.0318968100
   14       -0.0000000000
   15       -0.0887311900
   16        0.0274975900
   17        0.0000000000
   18        0.0102227900
   19       -0.0031680200
   20       -0.0000000000
   21       -0.6946597200
   22        0.2152734400
   23        0.0000000000
   24       -0.0000000000
   25       -0.0000000000
   26        0.0291697800
   27       -0.0090396500
   28        0.0000000000
   29       -0.0000000000
   30       -0.0000000000
   31       -0.0000000000
   32       -0.0442568800
   33        0.0137151000
   34       -0.0000000000
   35       -0.0000000000
   36        0.0000000000
   37       -0.0000000000
   38        0.0000000000
   39       -0.0000000000
   40       -0.0000000000
   41       -0.0000000000
   42        0.0000000000
   43        0.0000000000
   44       -0.0000000000
   45       -0.0000000000
   46       -0.1029269000
   47        0.0318968100
   48       -0.0000000000
   49        0.0887311900
   50       -0.0274975900
   51        0.0000000000
   52       -0.0102227900
   53        0.0031680200
   54       -0.0000000000
   55        0.6946597200
   56       -0.2152734400
   57        0.0000000000
   58        0.0000000000
   59        0.0000000000
   60        0.0291697800
   61       -0.0090396500
   62       -0.0000000000
   63        0.0000000000
   64        0.0000000000
   65        0.0000000000
   66       -0.0442568800
   67        0.0137151000
   68        0.0000000000
 Ene=          0.01755440
 Spin= Alpha
 Occup=        0.00000000
    1       -0.2109088100
    2       19.2917062600
    3       -2.7418689600
    4        1.5660307000
    5       -0.5278581200
    6        0.0497348800
    7       -0.0463269500
    8        0.0244660600
    9       -0.0004651000
   10        0.0002862700
   11       -0.0201309100
   12       -0.0000000000
   13        0.0000000000
   14        9.2622572400
   15        0.0000000000
   16       -0.0000000000
   17       -1.6399007200
   18       -0.0000000000
   19        0.0000000000
   20        0.7230639600
   21        0.0000000000
   22       -0.0000000000
   23        0.0028153900
   24        0.0035955700
   25        0.0035955700
   26       -0.0000000000
   27        0.0000000000
   28       -0.0000000000
   29        2.3628880300
   30        0.1164869300
   31        0.1164869300
   32       -0.0000000000
   33       -0.0000000000
   34       -0.0000000000
   35        0.2109088100
   36      -19.2917062600
   37        2.7418689600
   38       -1.5660307000
   39        0.5278581200
   40       -0.0497348800
   41        0.0463269500
   42       -0.0244660600
   43        0.0004651000
   44       -0.0002862700
   45       -0.0201309100
   46        0.0000000000
   47       -0.0000000000
   48        9.2622572400
   49        0.0000000000
   50        0.0000000000
   51       -1.6399007200
   52       -0.0000000000
   53        0.0000000000
   54        0.7230639600
   55        0.0000000000
   56       -0.0000000000
   57       -0.0028153900
   58       -0.0035955700
   59       -0.0035955700
   60       -0.0000000000
   61        0.0000000000
   62        0.0000000000
   63       -2.3628880300
   64       -0.1164869300
   65       -0.1164869300
   66        0.0000000000
   67       -0.0000000000
   68       -0.0000000000
 Ene=          0.01760770
 Spin= Alpha
 Occup=        0.00000000
    1       -0.0000000000
    2       -0.0000000000
    3       -0.0000000000
    4        0.0000000000
    5       -0.0000000000
    6        0.0000000000
    7       -0.0000000000
    8        0.0000000000
    9        0.0000000000
   10       -0.0000000000
   11        0.0000000000
   12       -0.0293669500
   13       -0.0716177600
   14       -0.0000000000
   15        0.0859277000
   16        0.2095535700
   17       -0.0000000000
   18       -0.3605113100
   19       -0.8791860000
   20        0.0000000000
   21        0.3675922700
   22        0.8964544600
   23        0.0000000000
   24       -0.0000000000
   25       -0.0000000000
   26        0.0225052900
   27        0.0548840900
   28       -0.0000000000
   29       -0.0000000000
   30        0.0000000000
   31        0.0000000000
   32       -0.0445776800
   33       -0.1087124600
   34        0.0000000000
   35       -0.0000000000
   36        0.0000000000
   37        0.0000000000
   38       -0.0000000000
   39        0.0000000000
   40       -0.0000000000
   41        0.0000000000
   42       -0.0000000000
   43        0.0000000000
   44       -0.0000000000
   45       -0.0000000000
   46       -0.0293669500
   47       -0.0716177600
   48       -0.0000000000
   49        0.0859277000
   50        0.2095535700
   51       -0.0000000000
   52       -0.3605113100
   53       -0.8791860000
   54        0.0000000000
   55        0.3675922700
   56        0.8964544600
   57        0.0000000000
   58        0.0000000000
   59        0.0000000000
   60       -0.0225052900
   61       -0.0548840900
   62        0.0000000000
   63        0.0000000000
   64        0.0000000000
   65        0.0000000000
   66        0.0445776800
   67        0.1087124600
   68       -0.0000000000
 Ene=          0.01760770
 Spin= Alpha
 Occup=        0.00000000
    1        0.0000000000
    2       -0.0000000000
    3        0.0000000000
    4       -0.0000000000
    5        0.0000000000
    6       -0.0000000000
    7        0.0000000000
    8       -0.0000000000
    9        0.0000000000
   10       -0.0000000000
   11        0.0000000000
   12       -0.0716177600
   13        0.0293669500
   14       -0.0000000000
   15        0.2095535700
   16       -0.0859277000
   17        0.0000000000
   18       -0.8791860000
   19        0.3605113100
   20       -0.0000000000
   21        0.8964544600
   22       -0.3675922700
   23       -0.0000000000
   24        0.0000000000
   25        0.0000000000
   26        0.0548840900
   27       -0.0225052900
   28        0.0000000000
   29       -0.0000000000
   30       -0.0000000000
   31       -0.0000000000
   32       -0.1087124600
   33        0.0445776800
   34        0.0000000000
   35       -0.0000000000
   36        0.0000000000
   37       -0.0000000000
   38        0.0000000000
   39       -0.0000000000
   40        0.0000000000
   41       -0.0000000000
   42        0.0000000000
   43       -0.0000000000
   44        0.0000000000
   45        0.0000000000
   46       -0.0716177600
   47        0.0293669500
   48       -0.0000000000
   49        0.2095535700
   50       -0.0859277000
   51        0.0000000000
   52       -0.8791860000
   53        0.3605113100
   54       -0.0000000000
   55        0.8964544600
   56       -0.3675922700
   57       -0.0000000000
   58       -0.0000000000
   59       -0.0000000000
   60       -0.0548840900
   61        0.0225052900
   62       -0.0000000000
   63        0.0000000000
   64        0.0000000000
   65        0.0000000000
   66        0.1087124600
   67       -0.0445776800
   68        0.0000000000
 Ene=          0.02080060
 Spin= Alpha
 Occup=        0.00000000
    1       -0.2715339500
    2       -0.0390493400
    3        0.1723246800
    4       -1.0723825900
    5        0.6856907300
    6        0.0230827700
    7        0.0716652500
    8       -0.0476468900
    9       -0.0016559800
   10       -0.0001958300
   11        0.3926826200
   12       -0.0000000000
   13        0.0000000000
   14       -0.0862647100
   15       -0.0000000000
   16       -0.0000000000
   17        0.1697899100
   18        0.0000000000
   19        0.0000000000
   20        0.3185511300
   21       -0.0000000000
   22       -0.0000000000
   23        0.1755354900
   24        0.0134633200
   25        0.0134633200
   26       -0.0000000000
   27        0.0000000000
   28       -0.0000000000
   29        0.0272705100
   30        0.0292778700
   31        0.0292778700
   32       -0.0000000000
   33       -0.0000000000
   34        0.0000000000
   35       -0.2715339500
   36       -0.0390493400
   37        0.1723246800
   38       -1.0723825900
   39        0.6856907300
   40        0.0230827700
   41        0.0716652500
   42       -0.0476468900
   43       -0.0016559800
   44       -0.0001958300
   45       -0.3926826200
   46        0.0000000000
   47       -0.0000000000
   48        0.0862647100
   49        0.0000000000
   50        0.0000000000
   51       -0.1697899100
   52        0.0000000000
   53       -0.0000000000
   54       -0.3185511300
   55       -0.0000000000
   56        0.0000000000
   57        0.1755354900
   58        0.0134633200
   59        0.0134633200
   60       -0.0000000000
   61        0.0000000000
   62        0.0000000000
   63        0.0272705100
   64        0.0292778700
   65        0.0292778700
   66       -0.0000000000
   67       -0.0000000000
   68       -0.0000000000
 Ene=          0.02283450
 Spin= Alpha
 Occup=        0.00000000
    1        0.0663997600
    2       -6.9980425100
    3        1.8912049000
    4       -1.8747648100
    5        0.8656054200
    6        0.0101714700
    7        0.0802361800
    8       -0.0517979400
    9       -0.0015074800
   10       -0.0002554800
   11        0.0461732800
   12        0.0000000000
   13       -0.0000000000
   14       -3.3429236900
   15       -0.0000000000
   16        0.0000000000
   17        0.9349855700
   18        0.0000000000
   19       -0.0000000000
   20        0.3148996600
   21       -0.0000000000
   22        0.0000000000
   23        0.0245550100
   24        0.0354912000
   25        0.0354912000
   26        0.0000000000
   27       -0.0000000000
   28       -0.0000000000
   29       -0.7842805600
   30       -0.0037383500
   31       -0.0037383500
   32       -0.0000000000
   33        0.0000000000
   34        0.0000000000
   35       -0.0663997600
   36        6.9980425100
   37       -1.8912049000
   38        1.8747648100
   39       -0.8656054200
   40       -0.0101714700
   41       -0.0802361800
   42        0.0517979400
   43        0.0015074800
   44        0.0002554800
   45        0.0461732800
   46       -0.0000000000
   47        0.0000000000
   48       -3.3429236900
   49        0.0000000000
   50       -0.0000000000
   51        0.9349855700
   52       -0.0000000000
   53        0.0000000000
   54        0.3148996600
   55        0.0000000000
   56       -0.0000000000
   57       -0.0245550100
   58       -0.0354912000
   59       -0.0354912000
   60        0.0000000000
   61       -0.0000000000
   62        0.0000000000
   63        0.7842805600
   64        0.0037383500
   65        0.0037383500
   66       -0.0000000000
   67        0.0000000000
   68       -0.0000000000
 Ene=          0.02399780
 Spin= Alpha
 Occup=        0.00000000
    1        0.0000000000
    2       -0.0000000000
    3       -0.0000000000
    4        0.0000000000
    5       -0.0000000000
    6        0.0000000000
    7       -0.0000000000
    8        0.0000000000
    9        0.0000000000
   10        0.0000000000
   11       -0.0000000000
   12        1.0959158200
   13       -3.0411694900
   14       -0.0000000000
   15       -0.2721749300
   16        0.7552861800
   17        0.0000000000
   18        0.5193529000
   19       -1.4412057500
   20       -0.0000000000
   21       -0.2729225000
   22        0.7573607100
   23       -0.0000000000
   24       -0.0000000000
   25       -0.0000000000
   26        0.2531252400
   27       -0.7024232400
   28        0.0000000000
   29       -0.0000000000
   30       -0.0000000000
   31       -0.0000000000
   32       -0.0349147400
   33        0.0968885100
   34       -0.0000000000
   35       -0.0000000000
   36        0.0000000000
   37       -0.0000000000
   38       -0.0000000000
   39        0.0000000000
   40        0.0000000000
   41        0.0000000000
   42       -0.0000000000
   43       -0.0000000000
   44       -0.0000000000
   45       -0.0000000000
   46       -1.0959158200
   47        3.0411694900
   48       -0.0000000000
   49        0.2721749300
   50       -0.7552861800
   51        0.0000000000
   52       -0.5193529000
   53        1.4412057500
   54       -0.0000000000
   55        0.2729225000
   56       -0.7573607100
   57        0.0000000000
   58        0.0000000000
   59        0.0000000000
   60        0.2531252400
   61       -0.7024232400
   62       -0.0000000000
   63        0.0000000000
   64        0.0000000000
   65        0.0000000000
   66       -0.0349147400
   67        0.0968885100
   68        0.0000000000
 Ene=          0.02399780
 Spin= Alpha
 Occup=        0.00000000
    1        0.0000000000
    2        0.0000000000
    3       -0.0000000000
    4        0.0000000000
    5       -0.0000000000
    6       -0.0000000000
    7       -0.0000000000
    8        0.0000000000
    9       -0.0000000000
   10        0.0000000000
   11        0.0000000000
   12        3.0411694900
   13        1.0959158200
   14        0.0000000000
   15       -0.7552861800
   16       -0.2721749300