[Molden Format]
[Title]
 Molden2AIM, Version 3.1.0 (02/25/2015)           Time: Thu Oct 17 19:52:29 2024

[Atoms] AU
E+       1       4     0.00000000     0.00000000     0.00000000
E+       2       4     7.80000000     0.00000000     0.00000000
[GTO]
    1 0
 S   1 1.0
    0.1000000000D-03      0.1000000000D+01
 S   1 1.0
    0.3000000000D-03      0.1000000000D+01
 S   1 1.0
    0.9000000000D-03      0.1000000000D+01
 S   1 1.0
    0.2700000000D-02      0.1000000000D+01
 S   1 1.0
    0.8100000000D-02      0.1000000000D+01
 S   1 1.0
    0.2430000000D-01      0.1000000000D+01
 S   1 1.0
    0.7290000000D-01      0.1000000000D+01
 S   1 1.0
    0.2187000000D+00      0.1000000000D+01
 S   1 1.0
    0.6561000000D+00      0.1000000000D+01
 S   1 1.0
    0.1968300000D+01      0.1000000000D+01
 P   1 1.0
    0.1000000000D-03      0.1000000000D+01
 P   1 1.0
    0.3000000000D-03      0.1000000000D+01
 P   1 1.0
    0.9000000000D-03      0.1000000000D+01
 P   1 1.0
    0.2700000000D-02      0.1000000000D+01
 D   1 1.0
    0.1000000000D-03      0.1000000000D+01
 D   1 1.0
    0.3000000000D-03      0.1000000000D+01

    2 0
 S   1 1.0
    0.1000000000D-03      0.1000000000D+01
 S   1 1.0
    0.3000000000D-03      0.1000000000D+01
 S   1 1.0
    0.9000000000D-03      0.1000000000D+01
 S   1 1.0
    0.2700000000D-02      0.1000000000D+01
 S   1 1.0
    0.8100000000D-02      0.1000000000D+01
 S   1 1.0
    0.2430000000D-01      0.1000000000D+01
 S   1 1.0
    0.7290000000D-01      0.1000000000D+01
 S   1 1.0
    0.2187000000D+00      0.1000000000D+01
 S   1 1.0
    0.6561000000D+00      0.1000000000D+01
 S   1 1.0
    0.1968300000D+01      0.1000000000D+01
 P   1 1.0
    0.1000000000D-03      0.1000000000D+01
 P   1 1.0
    0.3000000000D-03      0.1000000000D+01
 P   1 1.0
    0.9000000000D-03      0.1000000000D+01
 P   1 1.0
    0.2700000000D-02      0.1000000000D+01
 D   1 1.0
    0.1000000000D-03      0.1000000000D+01
 D   1 1.0
    0.3000000000D-03      0.1000000000D+01


[MO]
 Ene=         -0.01415480
 Spin= Alpha
 Occup=        1.00000000
    1       -0.0020173000
    2        0.0022664500
    3       -0.0002203700
    4       -0.0639496300
    5       -0.1687107200
    6       -0.2967852800
    7       -0.1660919300
    8        0.1356069700
    9        0.0093392600
   10       -0.0001264600
   11       -0.0001456500
   12       -0.0000000000
   13       -0.0000000000
   14        0.0001530100
   15       -0.0000000000
   16       -0.0000000000
   17        0.0364418900
   18       -0.0000000000
   19       -0.0000000000
   20       -0.0390334100
   21        0.0000000000
   22        0.0000000000
   23       -0.0003052900
   24        0.0006321500
   25        0.0006321500
   26       -0.0000000000
   27        0.0000000000
   28        0.0000000000
   29        0.0021363500
   30       -0.0004803800
   31       -0.0004803800
   32        0.0000000000
   33        0.0000000000
   34       -0.0000000000
   35       -0.0020173000
   36        0.0022664500
   37       -0.0002203700
   38       -0.0639496300
   39       -0.1687107200
   40       -0.2967852800
   41       -0.1660919300
   42        0.1356069700
   43        0.0093392600
   44       -0.0001264600
   45        0.0001456500
   46        0.0000000000
   47        0.0000000000
   48       -0.0001530100
   49        0.0000000000
   50        0.0000000000
   51       -0.0364418900
   52        0.0000000000
   53        0.0000000000
   54        0.0390334100
   55       -0.0000000000
   56       -0.0000000000
   57       -0.0003052900
   58        0.0006321500
   59        0.0006321500
   60        0.0000000000
   61       -0.0000000000
   62       -0.0000000000
   63        0.0021363500
   64       -0.0004803800
   65       -0.0004803800
   66       -0.0000000000
   67       -0.0000000000
   68        0.0000000000
 Ene=          0.00228109
 Spin= Alpha
 Occup=        0.00000000
    1       -0.1492376200
    2       -0.3233306200
    3        1.1411097700
    4       -0.5947098400
    5        0.1306366100
    6       -0.1243483800
    7       -0.0019306600
    8        0.0139164100
    9        0.0030104800
   10       -0.0002984900
   11       -0.0127527600
   12        0.0000000000
   13        0.0000000000
   14       -0.0551659200
   15        0.0000000000
   16        0.0000000000
   17        0.0648634600
   18        0.0000000000
   19       -0.0000000000
   20        0.0171703100
   21       -0.0000000000
   22       -0.0000000000
   23        0.0199128000
   24        0.0206052700
   25        0.0206052700
   26        0.0000000000
   27       -0.0000000000
   28        0.0000000000
   29        0.0927747000
   30        0.0989911500
   31        0.0989911500
   32        0.0000000000
   33       -0.0000000000
   34       -0.0000000000
   35       -0.1492376200
   36       -0.3233306200
   37        1.1411097700
   38       -0.5947098400
   39        0.1306366100
   40       -0.1243483800
   41       -0.0019306600
   42        0.0139164100
   43        0.0030104800
   44       -0.0002984900
   45        0.0127527600
   46       -0.0000000000
   47       -0.0000000000
   48        0.0551659200
   49       -0.0000000000
   50       -0.0000000000
   51       -0.0648634600
   52       -0.0000000000
   53        0.0000000000
   54       -0.0171703100
   55        0.0000000000
   56        0.0000000000
   57        0.0199128000
   58        0.0206052700
   59        0.0206052700
   60        0.0000000000
   61        0.0000000000
   62       -0.0000000000
   63        0.0927747000
   64        0.0989911500
   65        0.0989911500
   66        0.0000000000
   67        0.0000000000
   68        0.0000000000
 Ene=          0.00278845
 Spin= Alpha
 Occup=        0.00000000
    1        0.0067392500
    2        0.0130159700
    3        0.0968770400
    4        2.8813762100
    5       -0.3189581400
    6       -0.0477492700
    7       -0.0423965600
    8        0.0319678500
    9        0.0013517200
   10        0.0001019900
   11       -0.1555276300
   12       -0.0000000000
   13        0.0000000000
   14       -0.1354853300
   15        0.0000000000
   16        0.0000000000
   17        0.6773747700
   18       -0.0000000000
   19       -0.0000000000
   20        0.5918061200
   21       -0.0000000000
   22        0.0000000000
   23       -0.7616038500
   24       -0.7312934300
   25       -0.7312934300
   26       -0.0000000000
   27        0.0000000000
   28        0.0000000000
   29       -1.4342532800
   30       -1.4662507600
   31       -1.4662507600
   32        0.0000000000
   33        0.0000000000
   34        0.0000000000
   35       -0.0067392500
   36       -0.0130159700
   37       -0.0968770400
   38       -2.8813762100
   39        0.3189581400
   40        0.0477492700
   41        0.0423965600
   42       -0.0319678500
   43       -0.0013517200
   44       -0.0001019900
   45       -0.1555276300
   46        0.0000000000
   47       -0.0000000000
   48       -0.1354853300
   49       -0.0000000000
   50       -0.0000000000
   51        0.6773747700
   52        0.0000000000
   53        0.0000000000
   54        0.5918061200
   55       -0.0000000000
   56       -0.0000000000
   57        0.7616038500
   58        0.7312934300
   59        0.7312934300
   60       -0.0000000000
   61        0.0000000000
   62       -0.0000000000
   63        1.4342532800
   64        1.4662507600
   65        1.4662507600
   66        0.0000000000
   67        0.0000000000
   68       -0.0000000000
 Ene=          0.00347091
 Spin= Alpha
 Occup=        0.00000000
    1       -0.0000000000
    2       -0.0000000000
    3        0.0000000000
    4        0.0000000000
    5       -0.0000000000
    6        0.0000000000
    7       -0.0000000000
    8       -0.0000000000
    9        0.0000000000
   10       -0.0000000000
   11        0.0000000000
   12        0.0249305000
   13       -0.0101038400
   14        0.0000000000
   15       -0.1102046600
   16        0.0446638000
   17       -0.0000000000
   18        0.5262995800
   19       -0.2132989700
   20        0.0000000000
   21        0.0144977900
   22       -0.0058756700
   23        0.0000000000
   24        0.0000000000
   25       -0.0000000000
   26        0.1972976700
   27       -0.0799609000
   28       -0.0000000000
   29        0.0000000000
   30        0.0000000000
   31        0.0000000000
   32       -0.1145834100
   33        0.0464384200
   34       -0.0000000000
   35       -0.0000000000
   36       -0.0000000000
   37       -0.0000000000
   38       -0.0000000000
   39        0.0000000000
   40       -0.0000000000
   41        0.0000000000
   42       -0.0000000000
   43        0.0000000000
   44       -0.0000000000
   45        0.0000000000
   46        0.0249305000
   47       -0.0101038400
   48       -0.0000000000
   49       -0.1102046600
   50        0.0446638000
   51        0.0000000000
   52        0.5262995800
   53       -0.2132989700
   54        0.0000000000
   55        0.0144977900
   56       -0.0058756700
   57       -0.0000000000
   58       -0.0000000000
   59        0.0000000000
   60       -0.1972976700
   61        0.0799609000
   62        0.0000000000
   63       -0.0000000000
   64       -0.0000000000
   65       -0.0000000000
   66        0.1145834100
   67       -0.0464384200
   68        0.0000000000
 Ene=          0.00347091
 Spin= Alpha
 Occup=        0.00000000
    1       -0.0000000000
    2        0.0000000000
    3       -0.0000000000
    4       -0.0000000000
    5        0.0000000000
    6        0.0000000000
    7        0.0000000000
    8       -0.0000000000
    9        0.0000000000
   10       -0.0000000000
   11       -0.0000000000
   12       -0.0101038400
   13       -0.0249305000
   14       -0.0000000000
   15        0.0446638000
   16        0.1102046600
   17        0.0000000000
   18       -0.2132989700
   19       -0.5262995800
   20       -0.0000000000
   21       -0.0058756700
   22       -0.0144977900
   23        0.0000000000
   24        0.0000000000
   25        0.0000000000
   26       -0.0799609000
   27       -0.1972976700
   28       -0.0000000000
   29        0.0000000000
   30       -0.0000000000
   31        0.0000000000
   32        0.0464384200
   33        0.1145834100
   34        0.0000000000
   35        0.0000000000
   36       -0.0000000000
   37        0.0000000000
   38        0.0000000000
   39       -0.0000000000
   40       -0.0000000000
   41        0.0000000000
   42       -0.0000000000
   43        0.0000000000
   44       -0.0000000000
   45        0.0000000000
   46       -0.0101038400
   47       -0.0249305000
   48        0.0000000000
   49        0.0446638000
   50        0.1102046600
   51       -0.0000000000
   52       -0.2132989700
   53       -0.5262995800
   54       -0.0000000000
   55       -0.0058756700
   56       -0.0144977900
   57       -0.0000000000
   58       -0.0000000000
   59       -0.0000000000
   60        0.0799609000
   61        0.1972976700
   62        0.0000000000
   63       -0.0000000000
   64        0.0000000000
   65       -0.0000000000
   66       -0.0464384200
   67       -0.1145834100
   68       -0.0000000000
 Ene=          0.00655495
 Spin= Alpha
 Occup=        0.00000000
    1        0.0075077200
    2        0.0154534500
    3        0.0796067500
    4        3.1514863200
    5        0.2279032000
    6        0.1938688000
    7        0.0595795500
    8       -0.0572024500
    9       -0.0045206500
   10        0.0001125800
   11       -0.1732632600
   12       -0.0000000000
   13        0.0000000000
   14       -0.1638961600
   15        0.0000000000
   16        0.0000000000
   17        0.8460315800
   18        0.0000000000
   19        0.0000000000
   20        0.0366908900
   21        0.0000000000
   22        0.0000000000
   23       -0.8484220400
   24       -0.8129748300
   25       -0.8129748300
   26       -0.0000000000
   27        0.0000000000
   28        0.0000000000
   29       -1.6266996600
   30       -1.6642035000
   31       -1.6642035000
   32        0.0000000000
   33        0.0000000000
   34        0.0000000000
   35       -0.0075077200
   36       -0.0154534500
   37       -0.0796067500
   38       -3.1514863200
   39       -0.2279032000
   40       -0.1938688000
   41       -0.0595795500
   42        0.0572024500
   43        0.0045206500
   44       -0.0001125800
   45       -0.1732632600
   46        0.0000000000
   47       -0.0000000000
   48       -0.1638961600
   49       -0.0000000000
   50       -0.0000000000
   51        0.8460315800
   52       -0.0000000000
   53       -0.0000000000
   54        0.0366908900
   55       -0.0000000000
   56       -0.0000000000
   57        0.8484220400
   58        0.8129748300
   59        0.8129748300
   60       -0.0000000000
   61        0.0000000000
   62       -0.0000000000
   63        1.6266996600
   64        1.6642035000
   65        1.6642035000
   66        0.0000000000
   67        0.0000000000
   68       -0.0000000000
 Ene=          0.00668664
 Spin= Alpha
 Occup=        0.00000000
    1        0.0000000000
    2        0.0000000000
    3        0.0000000000
    4        0.0000000000
    5       -0.0000000000
    6        0.0000000000
    7        0.0000000000
    8       -0.0000000000
    9       -0.0000000000
   10       -0.0000000000
   11       -0.0000000000
   12       -0.0001142400
   13       -0.0008833000
   14       -0.0000000000
   15        0.0003024100
   16        0.0023382000
   17        0.0000000000
   18       -0.4878781100
   19       -3.7722637000
   20        0.0000000000
   21       -0.0960053300
   22       -0.7423112800
   23       -0.0000000000
   24       -0.0000000000
   25       -0.0000000000
   26        0.0045101500
   27        0.0348723700
   28        0.0000000000
   29       -0.0000000000
   30       -0.0000000000
   31       -0.0000000000
   32       -0.0133412400
   33       -0.1031541800
   34       -0.0000000000
   35        0.0000000000
   36        0.0000000000
   37       -0.0000000000
   38       -0.0000000000
   39       -0.0000000000
   40       -0.0000000000
   41       -0.0000000000
   42        0.0000000000
   43        0.0000000000
   44       -0.0000000000
   45       -0.0000000000
   46        0.0001142400
   47        0.0008833000
   48        0.0000000000
   49       -0.0003024100
   50       -0.0023382000
   51       -0.0000000000
   52        0.4878781100
   53        3.7722637000
   54        0.0000000000
   55        0.0960053300
   56        0.7423112800
   57        0.0000000000
   58        0.0000000000
   59        0.0000000000
   60        0.0045101500
   61        0.0348723700
   62       -0.0000000000
   63        0.0000000000
   64        0.0000000000
   65        0.0000000000
   66       -0.0133412400
   67       -0.1031541800
   68        0.0000000000
 Ene=          0.00668664
 Spin= Alpha
 Occup=        0.00000000
    1        0.0000000000
    2        0.0000000000
    3       -0.0000000000
    4       -0.0000000000
    5        0.0000000000
    6       -0.0000000000
    7        0.0000000000
    8       -0.0000000000
    9        0.0000000000
   10       -0.0000000000
   11        0.0000000000
   12       -0.0008833000
   13        0.0001142400
   14        0.0000000000
   15        0.0023382000
   16       -0.0003024100
   17        0.0000000000
   18       -3.7722637000
   19        0.4878781100
   20        0.0000000000
   21       -0.7423112800
   22        0.0960053300
   23       -0.0000000000
   24       -0.0000000000
   25       -0.0000000000
   26        0.0348723700
   27       -0.0045101500
   28        0.0000000000
   29       -0.0000000000
   30       -0.0000000000
   31       -0.0000000000
   32       -0.1031541800
   33        0.0133412400
   34       -0.0000000000
   35        0.0000000000
   36        0.0000000000
   37       -0.0000000000
   38        0.0000000000
   39       -0.0000000000
   40        0.0000000000
   41        0.0000000000
   42       -0.0000000000
   43       -0.0000000000
   44       -0.0000000000
   45       -0.0000000000
   46        0.0008833000
   47       -0.0001142400
   48       -0.0000000000
   49       -0.0023382000
   50        0.0003024100
   51       -0.0000000000
   52        3.7722637000
   53       -0.4878781100
   54       -0.0000000000
   55        0.7423112800
   56       -0.0960053300
   57        0.0000000000
   58        0.0000000000
   59        0.0000000000
   60        0.0348723700
   61       -0.0045101500
   62       -0.0000000000
   63        0.0000000000
   64       -0.0000000000
   65       -0.0000000000
   66       -0.1031541800
   67        0.0133412400
   68        0.0000000000
 Ene=          0.00671973
 Spin= Alpha
 Occup=        0.00000000
    1       -0.2577380900
    2       -0.5205124100
    3        0.4595734600
    4        0.5210971300
    5       -0.0105740700
    6       -0.0022883300
    7       -0.0037873200
    8        0.0025558000
    9       -0.0000462100
   10        0.0000317700
   11       -0.0237656900
   12        0.0000000000
   13        0.0000000000
   14       -0.0850621700
   15        0.0000000000
   16        0.0000000000
   17       -3.1623024200
   18       -0.0000000000
   19       -0.0000000000
   20       -0.6863117900
   21       -0.0000000000
   22       -0.0000000000
   23        0.0686002500
   24        0.0201006700
   25        0.0201006700
   26        0.0000000000
   27        0.0000000000
   28       -0.0000000000
   29        0.0518343700
   30        0.2101290900
   31        0.2101290900
   32       -0.0000000000
   33       -0.0000000000
   34        0.0000000000
   35       -0.2577380900
   36       -0.5205124100
   37        0.4595734600
   38        0.5210971300
   39       -0.0105740700
   40       -0.0022883300
   41       -0.0037873200
   42        0.0025558000
   43       -0.0000462100
   44        0.0000317700
   45        0.0237656900
   46       -0.0000000000
   47       -0.0000000000
   48        0.0850621700
   49       -0.0000000000
   50       -0.0000000000
   51        3.1623024200
   52        0.0000000000
   53        0.0000000000
   54        0.6863117900
   55        0.0000000000
   56        0.0000000000
   57        0.0686002500
   58        0.0201006700
   59        0.0201006700
   60        0.0000000000
   61       -0.0000000000
   62        0.0000000000
   63        0.0518343700
   64        0.2101290900
   65        0.2101290900
   66       -0.0000000000
   67       -0.0000000000
   68       -0.0000000000
 Ene=          0.00891771
 Spin= Alpha
 Occup=        0.00000000
    1        0.0000000000
    2        0.0000000000
    3        0.0000000000
    4        0.0000000000
    5       -0.0000000000
    6        0.0000000000
    7       -0.0000000000
    8        0.0000000000
    9        0.0000000000
   10       -0.0000000000
   11        0.0000000000
   12        0.0250855700
   13       -0.0042500100
   14        0.0000000000
   15       -0.1125356000
   16        0.0190658200
   17        0.0000000000
   18        0.6256416600
   19       -0.1059964100
   20        0.0000000000
   21       -0.7426016500
   22        0.1258118100
   23        0.0000000000
   24        0.0000000000
   25        0.0000000000
   26        0.1844929800
   27       -0.0312568600
   28        0.0000000000
   29        0.0000000000
   30        0.0000000000
   31        0.0000000000
   32       -0.1029458700
   33        0.0174411200
   34       -0.0000000000
   35        0.0000000000
   36        0.0000000000
   37       -0.0000000000
   38       -0.0000000000
   39        0.0000000000
   40       -0.0000000000
   41       -0.0000000000
   42        0.0000000000
   43        0.0000000000
   44       -0.0000000000
   45        0.0000000000
   46        0.0250855700
   47       -0.0042500100
   48       -0.0000000000
   49       -0.1125356000
   50        0.0190658200
   51       -0.0000000000
   52        0.6256416600
   53       -0.1059964100
   54        0.0000000000
   55       -0.7426016500
   56        0.1258118100
   57       -0.0000000000
   58       -0.0000000000
   59       -0.0000000000
   60       -0.1844929800
   61        0.0312568600
   62       -0.0000000000
   63       -0.0000000000
   64       -0.0000000000
   65       -0.0000000000
   66        0.1029458700
   67       -0.0174411200
   68        0.0000000000
 Ene=          0.00891771
 Spin= Alpha
 Occup=        0.00000000
    1       -0.0000000000
    2       -0.0000000000
    3        0.0000000000
    4        0.0000000000
    5       -0.0000000000
    6        0.0000000000
    7       -0.0000000000
    8        0.0000000000
    9       -0.0000000000
   10        0.0000000000
   11        0.0000000000
   12        0.0042500100
   13        0.0250855700
   14        0.0000000000
   15       -0.0190658200
   16       -0.1125356000
   17        0.0000000000
   18        0.1059964100
   19        0.6256416600
   20        0.0000000000
   21       -0.1258118100
   22       -0.7426016500
   23        0.0000000000
   24        0.0000000000
   25        0.0000000000
   26        0.0312568600
   27        0.1844929800
   28        0.0000000000
   29        0.0000000000
   30        0.0000000000
   31        0.0000000000
   32       -0.0174411200
   33       -0.1029458700
   34       -0.0000000000
   35       -0.0000000000
   36        0.0000000000
   37       -0.0000000000
   38       -0.0000000000
   39        0.0000000000
   40       -0.0000000000
   41        0.0000000000
   42       -0.0000000000
   43        0.0000000000
   44       -0.0000000000
   45        0.0000000000
   46        0.0042500100
   47        0.0250855700
   48       -0.0000000000
   49       -0.0190658200
   50       -0.1125356000
   51       -0.0000000000
   52        0.1059964100
   53        0.6256416600
   54        0.0000000000
   55       -0.1258118100
   56       -0.7426016500
   57       -0.0000000000
   58       -0.0000000000
   59       -0.0000000000
   60       -0.0312568600
   61       -0.1844929800
   62       -0.0000000000
   63       -0.0000000000
   64       -0.0000000000
   65       -0.0000000000
   66        0.0174411200
   67        0.1029458700
   68        0.0000000000
 Ene=          0.00968907
 Spin= Alpha
 Occup=        0.00000000
    1        0.1087189800
    2       -0.1409898200
    3        0.8832516600
    4       -1.5212136900
    5        0.7693965700
    6       -0.0258362200
    7        0.1002303200
    8       -0.0594338300
    9       -0.0002774900
   10       -0.0005048900
   11        0.0093587500
   12        0.0000000000
   13        0.0000000000
   14       -0.0153846900
   15        0.0000000000
   16        0.0000000000
   17       -0.6525242900
   18        0.0000000000
   19       -0.0000000000
   20        0.2721189400
   21       -0.0000000000
   22       -0.0000000000
   23       -0.0088129300
   24       -0.0222593300
   25       -0.0222593300
   26        0.0000000000
   27        0.0000000000
   28       -0.0000000000
   29       -0.0423356800
   30       -0.0045291900
   31       -0.0045291900
   32        0.0000000000
   33       -0.0000000000
   34        0.0000000000
   35        0.1087189800
   36       -0.1409898200
   37        0.8832516600
   38       -1.5212137000
   39        0.7693965700
   40       -0.0258362200
   41        0.1002303200
   42       -0.0594338300
   43       -0.0002774900
   44       -0.0005048900
   45       -0.0093587500
   46       -0.0000000000
   47       -0.0000000000
   48        0.0153846900
   49       -0.0000000000
   50       -0.0000000000
   51        0.6525242900
   52       -0.0000000000
   53        0.0000000000
   54       -0.2721189400
   55       -0.0000000000
   56        0.0000000000
   57       -0.0088129300
   58       -0.0222593300
   59       -0.0222593300
   60       -0.0000000000
   61       -0.0000000000
   62        0.0000000000
   63       -0.0423356800
   64       -0.0045291900
   65       -0.0045291900
   66       -0.0000000000
   67        0.0000000000
   68       -0.0000000000
 Ene=          0.01299970
 Spin= Alpha
 Occup=        0.00000000
    1       -0.0081131500
    2       -0.0162451800
    3        8.2731313700
    4       97.0831881900
    5       -0.5523897900
    6        0.1645133000
    7       -0.0040146100
    8       -0.0127151000
    9       -0.0030736200
   10        0.0003147300
   11        0.1844689100
   12       -0.0000000000
   13        0.0000000000
   14        0.1855802100
   15        0.0000000000
   16        0.0000000000
   17        0.0270441700
   18        0.0000000000
   19       -0.0000000000
   20       20.9888445500
   21       -0.0000000000
   22        0.0000000000
   23        1.0275233600
   24        0.7934487100
   25        0.7934487100
   26       -0.0000000000
   27        0.0000000000
   28        0.0000000000
   29        1.6785829500
   30        1.9397915600
   31        1.9397915600
   32        0.0000000000
   33        0.0000000000
   34       -0.0000000000
   35        0.0081131500
   36        0.0162451800
   37       -8.2731313700
   38      -97.0831881900
   39        0.5523897900
   40       -0.1645133000
   41        0.0040146100
   42        0.0127151000
   43        0.0030736200
   44       -0.0003147300
   45        0.1844689100
   46        0.0000000000
   47       -0.0000000000
   48        0.1855802100
   49       -0.0000000000
   50       -0.0000000000
   51        0.0270441700
   52       -0.0000000000
   53        0.0000000000
   54       20.9888445500
   55        0.0000000000
   56       -0.0000000000
   57       -1.0275233600
   58       -0.7934487100
   59       -0.7934487100
   60       -0.0000000000
   61        0.0000000000
   62       -0.0000000000
   63       -1.6785829500
   64       -1.9397915600
   65       -1.9397915600
   66        0.0000000000
   67        0.0000000000
   68        0.0000000000
 Ene=          0.01455510
 Spin= Alpha
 Occup=        0.00000000
    1       -0.0000000000
    2       -0.0000000000
    3       -0.0000000000
    4       -0.0000000000
    5       -0.0000000000
    6       -0.0000000000
    7       -0.0000000000
    8        0.0000000000
    9        0.0000000000
   10        0.0000000000
   11       -0.0000000000
   12        0.0000235300
   13       -0.0007101200
   14       -0.0000000000
   15       -0.0000188000
   16        0.0005673500
   17       -0.0000000000
   18        0.1649075000
   19       -4.9768917300
   20       -0.0000000000
   21       -0.1055237000
   22        3.1846946900
   23       -0.0000000000
   24       -0.0000000000
   25        0.0000000000
   26       -0.0012268700
   27        0.0370269300
   28        0.0000000000
   29       -0.0000000000
   30       -0.0000000000
   31       -0.0000000000
   32        0.0037089100
   33       -0.1119346500
   34       -0.0000000000
   35       -0.0000000000
   36       -0.0000000000
   37        0.0000000000
   38        0.0000000000
   39       -0.0000000000
   40        0.0000000000
   41       -0.0000000000
   42       -0.0000000000
   43       -0.0000000000
   44        0.0000000000
   45        0.0000000000
   46       -0.0000235300
   47        0.0007101200
   48        0.0000000000
   49        0.0000188000
   50       -0.0005673500
   51        0.0000000000
   52       -0.1649075000
   53        4.9768917300
   54       -0.0000000000
   55        0.1055237000
   56       -3.1846946900
   57        0.0000000000
   58        0.0000000000
   59       -0.0000000000
   60       -0.0012268700
   61        0.0370269300
   62       -0.0000000000
   63        0.0000000000
   64        0.0000000000
   65        0.0000000000
   66        0.0037089100
   67       -0.1119346500
   68        0.0000000000
 Ene=          0.01455510
 Spin= Alpha
 Occup=        0.00000000
    1       -0.0000000000
    2       -0.0000000000
    3       -0.0000000000
    4       -0.0000000000
    5       -0.0000000000
    6       -0.0000000000
    7       -0.0000000000
    8        0.0000000000
    9        0.0000000000
   10        0.0000000000
   11       -0.0000000000
   12        0.0007101200
   13        0.0000235300
   14        0.0000000000
   15       -0.0005673500
   16       -0.0000188000
   17       -0.0000000000
   18        4.9768917300
   19        0.1649075000
   20       -0.0000000000
   21       -3.1846946900
   22       -0.1055237000
   23       -0.0000000000
   24       -0.0000000000
   25       -0.0000000000
   26       -0.0370269300
   27       -0.0012268700
   28       -0.0000000000
   29       -0.0000000000
   30       -0.0000000000
   31       -0.0000000000
   32        0.1119346500
   33        0.0037089100
   34        0.0000000000
   35       -0.0000000000
   36       -0.0000000000
   37        0.0000000000
   38        0.0000000000
   39       -0.0000000000
   40        0.0000000000
   41        0.0000000000
   42       -0.0000000000
   43       -0.0000000000
   44        0.0000000000
   45        0.0000000000
   46       -0.0007101200
   47       -0.0000235300
   48       -0.0000000000
   49        0.0005673500
   50        0.0000188000
   51        0.0000000000
   52       -4.9768917300
   53       -0.1649075000
   54       -0.0000000000
   55        3.1846946900
   56        0.1055237000
   57        0.0000000000
   58        0.0000000000
   59        0.0000000000
   60       -0.0370269300
   61       -0.0012268700
   62        0.0000000000
   63        0.0000000000
   64        0.0000000000
   65        0.0000000000
   66        0.1119346500
   67        0.0037089100
   68       -0.0000000000
 Ene=          0.01486650
 Spin= Alpha
 Occup=        0.00000000
    1       -0.5185847100
    2       -0.9107637800
    3        1.3348779400
    4        0.0016030700
    5       -0.6427700900
    6        0.1142846300
    7       -0.0569122500
    8        0.0240789900
    9       -0.0017074700
   10        0.0004553400
   11       -0.0459532000
   12        0.0000000000
   13        0.0000000000
   14       -0.1578583400
   15        0.0000000000
   16        0.0000000000