[Molden Format]
[Atoms] AU
E+       1       4     0.00000000     0.00000000     0.00000000
E+       2       4     8.60000000     0.00000000     0.00000000
[GTO]
  1 0
s  1 1.00
   1.0000000000E-04   1.0000000000E+00
s  1 1.00
   3.0000000000E-04   1.0000000000E+00
s  1 1.00
   9.0000000000E-04   1.0000000000E+00
s  1 1.00
   2.7000000000E-03   1.0000000000E+00
s  1 1.00
   8.1000000000E-03   1.0000000000E+00
s  1 1.00
   2.4300000000E-02   1.0000000000E+00
s  1 1.00
   7.2900000000E-02   1.0000000000E+00
s  1 1.00
   2.1870000000E-01   1.0000000000E+00
s  1 1.00
   6.5610000000E-01   1.0000000000E+00
s  1 1.00
   1.9683000000E+00   1.0000000000E+00
p  1 1.00
   1.0000000000E-04   1.0000000000E+00
p  1 1.00
   3.0000000000E-04   1.0000000000E+00
p  1 1.00
   9.0000000000E-04   1.0000000000E+00
p  1 1.00
   2.7000000000E-03   1.0000000000E+00
d  1 1.00
   1.0000000000E-04   1.0000000000E+00
d  1 1.00
   3.0000000000E-04   1.0000000000E+00
 
  2 0
s  1 1.00
   1.0000000000E-04   1.0000000000E+00
s  1 1.00
   3.0000000000E-04   1.0000000000E+00
s  1 1.00
   9.0000000000E-04   1.0000000000E+00
s  1 1.00
   2.7000000000E-03   1.0000000000E+00
s  1 1.00
   8.1000000000E-03   1.0000000000E+00
s  1 1.00
   2.4300000000E-02   1.0000000000E+00
s  1 1.00
   7.2900000000E-02   1.0000000000E+00
s  1 1.00
   2.1870000000E-01   1.0000000000E+00
s  1 1.00
   6.5610000000E-01   1.0000000000E+00
s  1 1.00
   1.9683000000E+00   1.0000000000E+00
p  1 1.00
   1.0000000000E-04   1.0000000000E+00
p  1 1.00
   3.0000000000E-04   1.0000000000E+00
p  1 1.00
   9.0000000000E-04   1.0000000000E+00
p  1 1.00
   2.7000000000E-03   1.0000000000E+00
d  1 1.00
   1.0000000000E-04   1.0000000000E+00
d  1 1.00
   3.0000000000E-04   1.0000000000E+00
 
 
[MO]
Ene=    -1.23719E-02
Spin= Alpha
Occup=   1.0000000000
   1       0.00023007
   2       0.00453781
   3      -0.00531097
   4      -0.07201298
   5      -0.18825397
   6      -0.28686251
   7      -0.14564238
   8       0.12380327
   9       0.00954169
  10      -0.00028085
  11       0.00005287
  12       0.00000000
  13       0.00000000
  14       0.00065643
  15      -0.00000000
  16      -0.00000000
  17       0.03192720
  18       0.00000000
  19       0.00000000
  20      -0.03622027
  21      -0.00000000
  22      -0.00000000
  23      -0.00059236
  24       0.00028683
  25       0.00028683
  26      -0.00000000
  27       0.00000000
  28       0.00000000
  29       0.00101637
  30      -0.00154538
  31      -0.00154538
  32       0.00000000
  33      -0.00000000
  34      -0.00000000
  35       0.00023007
  36       0.00453781
  37      -0.00531097
  38      -0.07201298
  39      -0.18825397
  40      -0.28686251
  41      -0.14564238
  42       0.12380327
  43       0.00954169
  44      -0.00028085
  45      -0.00005287
  46       0.00000000
  47      -0.00000000
  48      -0.00065643
  49      -0.00000000
  50      -0.00000000
  51      -0.03192720
  52      -0.00000000
  53      -0.00000000
  54       0.03622027
  55       0.00000000
  56      -0.00000000
  57      -0.00059236
  58       0.00028683
  59       0.00028683
  60       0.00000000
  61      -0.00000000
  62      -0.00000000
  63       0.00101637
  64      -0.00154538
  65      -0.00154538
  66      -0.00000000
  67       0.00000000
  68       0.00000000
Ene=     2.34797E-03
Spin= Alpha
Occup=   0.0000000000
   1      -0.15358830
   2      -0.32494153
   3       1.15538037
   4      -0.62183194
   5       0.13307116
   6      -0.12719808
   7      -0.00101187
   8       0.01365942
   9       0.00322019
  10      -0.00033577
  11      -0.01438858
  12      -0.00000000
  13      -0.00000000
  14      -0.06136781
  15       0.00000000
  16      -0.00000000
  17       0.09562256
  18       0.00000000
  19      -0.00000000
  20       0.00553137
  21      -0.00000000
  22       0.00000000
  23       0.02001654
  24       0.02146055
  25       0.02146055
  26       0.00000000
  27       0.00000000
  28       0.00000000
  29       0.09450739
  30       0.10052686
  31       0.10052686
  32       0.00000000
  33      -0.00000000
  34       0.00000000
  35      -0.15358830
  36      -0.32494153
  37       1.15538037
  38      -0.62183194
  39       0.13307116
  40      -0.12719808
  41      -0.00101187
  42       0.01365942
  43       0.00322019
  44      -0.00033577
  45       0.01438858
  46       0.00000000
  47      -0.00000000
  48       0.06136781
  49      -0.00000000
  50       0.00000000
  51      -0.09562256
  52      -0.00000000
  53       0.00000000
  54      -0.00553137
  55       0.00000000
  56       0.00000000
  57       0.02001654
  58       0.02146055
  59       0.02146055
  60      -0.00000000
  61      -0.00000000
  62      -0.00000000
  63       0.09450739
  64       0.10052686
  65       0.10052686
  66       0.00000000
  67       0.00000000
  68      -0.00000000
Ene=     2.64440E-03
Spin= Alpha
Occup=   0.0000000000
   1       0.00591473
   2       0.00222888
   3     -30.98757173
   4       2.75714367
   5      -0.35132269
   6      -0.05465530
   7      -0.04777831
   8       0.03702009
   9       0.00205613
  10       0.00004389
  11      -0.12002354
  12       0.00000000
  13       0.00000000
  14      -0.07447860
  15       0.00000000
  16      -0.00000000
  17      -3.47719599
  18      -0.00000000
  19       0.00000000
  20       0.62315324
  21       0.00000000
  22      -0.00000000
  23      -0.47342557
  24      -0.56184185
  25      -0.56184185
  26       0.00000000
  27       0.00000000
  28       0.00000000
  29      -1.00272068
  30      -0.86157197
  31      -0.86157197
  32       0.00000000
  33      -0.00000000
  34      -0.00000000
  35      -0.00591473
  36      -0.00222888
  37      30.98757173
  38      -2.75714367
  39       0.35132269
  40       0.05465530
  41       0.04777831
  42      -0.03702009
  43      -0.00205613
  44      -0.00004389
  45      -0.12002354
  46      -0.00000000
  47      -0.00000000
  48      -0.07447860
  49      -0.00000000
  50       0.00000000
  51      -3.47719599
  52       0.00000000
  53      -0.00000000
  54       0.62315324
  55      -0.00000000
  56       0.00000000
  57       0.47342557
  58       0.56184185
  59       0.56184185
  60       0.00000000
  61       0.00000000
  62      -0.00000000
  63       1.00272068
  64       0.86157197
  65       0.86157197
  66       0.00000000
  67      -0.00000000
  68       0.00000000
Ene=     3.48978E-03
Spin= Alpha
Occup=   0.0000000000
   1       0.00000000
   2      -0.00000000
   3       0.00000000
   4       0.00000000
   5      -0.00000000
   6      -0.00000000
   7      -0.00000000
   8       0.00000000
   9       0.00000000
  10      -0.00000000
  11       0.00000000
  12      -0.02688326
  13       0.00342284
  14      -0.00000000
  15       0.11827565
  16      -0.01505915
  17       0.00000000
  18      -0.56193437
  19       0.07154689
  20       0.00000000
  21      -0.01847911
  22       0.00235281
  23       0.00000000
  24       0.00000000
  25       0.00000000
  26      -0.19000064
  27       0.02419136
  28       0.00000000
  29       0.00000000
  30       0.00000000
  31      -0.00000000
  32       0.10862046
  33      -0.01382983
  34       0.00000000
  35      -0.00000000
  36       0.00000000
  37      -0.00000000
  38      -0.00000000
  39       0.00000000
  40      -0.00000000
  41       0.00000000
  42      -0.00000000
  43      -0.00000000
  44       0.00000000
  45      -0.00000000
  46      -0.02688326
  47       0.00342284
  48      -0.00000000
  49       0.11827565
  50      -0.01505915
  51       0.00000000
  52      -0.56193437
  53       0.07154689
  54       0.00000000
  55      -0.01847911
  56       0.00235281
  57      -0.00000000
  58      -0.00000000
  59      -0.00000000
  60       0.19000064
  61      -0.02419136
  62      -0.00000000
  63      -0.00000000
  64      -0.00000000
  65       0.00000000
  66      -0.10862046
  67       0.01382983
  68      -0.00000000
Ene=     3.48978E-03
Spin= Alpha
Occup=   0.0000000000
   1       0.00000000
   2      -0.00000000
   3      -0.00000000
   4      -0.00000000
   5       0.00000000
   6       0.00000000
   7       0.00000000
   8      -0.00000000
   9      -0.00000000
  10      -0.00000000
  11       0.00000000
  12      -0.00342284
  13      -0.02688326
  14       0.00000000
  15       0.01505915
  16       0.11827565
  17      -0.00000000
  18      -0.07154689
  19      -0.56193437
  20      -0.00000000
  21      -0.00235281
  22      -0.01847911
  23       0.00000000
  24       0.00000000
  25       0.00000000
  26      -0.02419136
  27      -0.19000064
  28       0.00000000
  29       0.00000000
  30       0.00000000
  31       0.00000000
  32       0.01382983
  33       0.10862046
  34      -0.00000000
  35       0.00000000
  36       0.00000000
  37       0.00000000
  38       0.00000000
  39      -0.00000000
  40      -0.00000000
  41      -0.00000000
  42       0.00000000
  43       0.00000000
  44      -0.00000000
  45      -0.00000000
  46      -0.00342284
  47      -0.02688326
  48       0.00000000
  49       0.01505915
  50       0.11827565
  51      -0.00000000
  52      -0.07154689
  53      -0.56193437
  54      -0.00000000
  55      -0.00235281
  56      -0.01847911
  57      -0.00000000
  58      -0.00000000
  59      -0.00000000
  60       0.02419136
  61       0.19000064
  62      -0.00000000
  63      -0.00000000
  64      -0.00000000
  65      -0.00000000
  66      -0.01382983
  67      -0.10862046
  68       0.00000000
Ene=     6.20520E-03
Spin= Alpha
Occup=   0.0000000000
   1       0.00715713
   2       0.00188290
   3     -43.86073568
   4       2.40083450
   5       0.22997663
   6       0.19410870
   7       0.05918997
   8      -0.05900907
   9      -0.00542962
  10       0.00023199
  11      -0.14431553
  12       0.00000000
  13       0.00000000
  14      -0.09662721
  15       0.00000000
  16      -0.00000000
  17      -4.94537251
  18      -0.00000000
  19       0.00000000
  20      -0.07664013
  21      -0.00000000
  22       0.00000000
  23      -0.56392471
  24      -0.67853692
  25      -0.67853692
  26       0.00000000
  27       0.00000000
  28       0.00000000
  29      -1.22621449
  30      -1.04244996
  31      -1.04244996
  32       0.00000000
  33      -0.00000000
  34      -0.00000000
  35      -0.00715713
  36      -0.00188290
  37      43.86073568
  38      -2.40083450
  39      -0.22997663
  40      -0.19410870
  41      -0.05918997
  42       0.05900907
  43       0.00542962
  44      -0.00023199
  45      -0.14431553
  46      -0.00000000
  47      -0.00000000
  48      -0.09662722
  49      -0.00000000
  50       0.00000000
  51      -4.94537251
  52       0.00000000
  53      -0.00000000
  54      -0.07664013
  55       0.00000000
  56      -0.00000000
  57       0.56392471
  58       0.67853692
  59       0.67853692
  60       0.00000000
  61       0.00000000
  62      -0.00000000
  63       1.22621449
  64       1.04244996
  65       1.04244996
  66       0.00000000
  67      -0.00000000
  68       0.00000000
Ene=     6.71356E-03
Spin= Alpha
Occup=   0.0000000000
   1       0.00000000
   2       0.00000000
   3       0.00000000
   4       0.00000000
   5       0.00000000
   6       0.00000000
   7       0.00000000
   8      -0.00000000
   9      -0.00000000
  10       0.00000000
  11      -0.00000000
  12       0.00063191
  13      -0.00073991
  14      -0.00000000
  15      -0.00167384
  16       0.00195991
  17       0.00000000
  18       2.21411346
  19      -2.59252656
  20       0.00000000
  21       0.46126425
  22      -0.54009871
  23      -0.00000000
  24      -0.00000000
  25      -0.00000000
  26      -0.02260982
  27       0.02647406
  28      -0.00000000
  29      -0.00000000
  30      -0.00000000
  31      -0.00000000
  32       0.06687630
  33      -0.07830610
  34       0.00000000
  35       0.00000000
  36      -0.00000000
  37      -0.00000000
  38      -0.00000000
  39      -0.00000000
  40      -0.00000000
  41      -0.00000000
  42       0.00000000
  43       0.00000000
  44      -0.00000000
  45      -0.00000000
  46      -0.00063191
  47       0.00073991
  48      -0.00000000
  49       0.00167384
  50      -0.00195991
  51       0.00000000
  52      -2.21411346
  53       2.59252656
  54       0.00000000
  55      -0.46126425
  56       0.54009871
  57       0.00000000
  58       0.00000000
  59       0.00000000
  60      -0.02260982
  61       0.02647406
  62       0.00000000
  63       0.00000000
  64       0.00000000
  65       0.00000000
  66       0.06687630
  67      -0.07830610
  68      -0.00000000
Ene=     6.71356E-03
Spin= Alpha
Occup=   0.0000000000
   1       0.00000000
   2       0.00000000
   3       0.00000000
   4       0.00000000
   5       0.00000000
   6       0.00000000
   7       0.00000000
   8      -0.00000000
   9      -0.00000000
  10       0.00000000
  11      -0.00000000
  12       0.00073991
  13       0.00063191
  14      -0.00000000
  15      -0.00195991
  16      -0.00167384
  17       0.00000000
  18       2.59252656
  19       2.21411346
  20       0.00000000
  21       0.54009871
  22       0.46126425
  23      -0.00000000
  24      -0.00000000
  25      -0.00000000
  26      -0.02647406
  27      -0.02260982
  28      -0.00000000
  29      -0.00000000
  30      -0.00000000
  31      -0.00000000
  32       0.07830610
  33       0.06687630
  34      -0.00000000
  35      -0.00000000
  36      -0.00000000
  37      -0.00000000
  38      -0.00000000
  39      -0.00000000
  40      -0.00000000
  41      -0.00000000
  42       0.00000000
  43       0.00000000
  44      -0.00000000
  45      -0.00000000
  46      -0.00073991
  47      -0.00063191
  48      -0.00000000
  49       0.00195991
  50       0.00167384
  51       0.00000000
  52      -2.59252656
  53      -2.21411346
  54       0.00000000
  55      -0.54009871
  56      -0.46126425
  57       0.00000000
  58       0.00000000
  59       0.00000000
  60      -0.02647406
  61      -0.02260982
  62       0.00000000
  63       0.00000000
  64       0.00000000
  65       0.00000000
  66       0.07830610
  67       0.06687630
  68       0.00000000
Ene=     6.74240E-03
Spin= Alpha
Occup=   0.0000000000
   1      -0.25206163
   2      -0.50614354
   3       0.44081948
   4       0.53664676
   5      -0.02105685
   6       0.00070990
   7      -0.00460286
   8       0.00287189
   9      -0.00004217
  10       0.00003319
  11      -0.02558646
  12       0.00000000
  13      -0.00000000
  14      -0.09126699
  15       0.00000000
  16      -0.00000000
  17      -2.82361342
  18       0.00000000
  19      -0.00000000
  20      -0.64644191
  21       0.00000000
  22      -0.00000000
  23       0.06712597
  24       0.01960192
  25       0.01960192
  26      -0.00000000
  27       0.00000000
  28      -0.00000000
  29       0.04781023
  30       0.20585967
  31       0.20585967
  32       0.00000000
  33      -0.00000000
  34      -0.00000000
  35      -0.25206163
  36      -0.50614354
  37       0.44081948
  38       0.53664676
  39      -0.02105685
  40       0.00070990
  41      -0.00460286
  42       0.00287189
  43      -0.00004217
  44       0.00003319
  45       0.02558646
  46      -0.00000000
  47       0.00000000
  48       0.09126699
  49      -0.00000000
  50       0.00000000
  51       2.82361342
  52      -0.00000000
  53       0.00000000
  54       0.64644191
  55      -0.00000000
  56       0.00000000
  57       0.06712597
  58       0.01960192
  59       0.01960192
  60      -0.00000000
  61       0.00000000
  62       0.00000000
  63       0.04781023
  64       0.20585967
  65       0.20585967
  66       0.00000000
  67      -0.00000000
  68       0.00000000
Ene=     8.97370E-03
Spin= Alpha
Occup=   0.0000000000
   1       0.00000000
   2      -0.00000000
   3      -0.00000000
   4      -0.00000000
   5       0.00000000
   6      -0.00000000
   7      -0.00000000
   8       0.00000000
   9       0.00000000
  10      -0.00000000
  11       0.00000000
  12       0.02553276
  13       0.00442704
  14       0.00000000
  15      -0.11387093
  16      -0.01974371
  17      -0.00000000
  18       0.63027095
  19       0.10928065
  20      -0.00000000
  21      -0.74639980
  22      -0.12941585
  23       0.00000000
  24       0.00000000
  25       0.00000000
  26       0.16666916
  27       0.02889823
  28      -0.00000000
  29       0.00000000
  30       0.00000000
  31       0.00000000
  32      -0.09080689
  33      -0.01574471
  34       0.00000000
  35       0.00000000
  36       0.00000000
  37       0.00000000
  38       0.00000000
  39      -0.00000000
  40       0.00000000
  41       0.00000000
  42      -0.00000000
  43      -0.00000000
  44       0.00000000
  45       0.00000000
  46       0.02553276
  47       0.00442704
  48       0.00000000
  49      -0.11387093
  50      -0.01974371
  51      -0.00000000
  52       0.63027095
  53       0.10928065
  54      -0.00000000
  55      -0.74639980
  56      -0.12941585
  57      -0.00000000
  58      -0.00000000
  59      -0.00000000
  60      -0.16666916
  61      -0.02889823
  62       0.00000000
  63      -0.00000000
  64      -0.00000000
  65      -0.00000000
  66       0.09080689
  67       0.01574471
  68      -0.00000000
Ene=     8.97370E-03
Spin= Alpha
Occup=   0.0000000000
   1       0.00000000
   2       0.00000000
   3       0.00000000
   4       0.00000000
   5      -0.00000000
   6       0.00000000
   7       0.00000000
   8      -0.00000000
   9      -0.00000000
  10      -0.00000000
  11      -0.00000000
  12       0.00442704
  13      -0.02553276
  14      -0.00000000
  15      -0.01974371
  16       0.11387093
  17       0.00000000
  18       0.10928065
  19      -0.63027095
  20       0.00000000
  21      -0.12941585
  22       0.74639980
  23      -0.00000000
  24      -0.00000000
  25      -0.00000000
  26       0.02889823
  27      -0.16666916
  28       0.00000000
  29      -0.00000000
  30      -0.00000000
  31      -0.00000000
  32      -0.01574471
  33       0.09080689
  34      -0.00000000
  35       0.00000000
  36      -0.00000000
  37      -0.00000000
  38      -0.00000000
  39       0.00000000
  40      -0.00000000
  41      -0.00000000
  42       0.00000000
  43       0.00000000
  44      -0.00000000
  45      -0.00000000
  46       0.00442704
  47      -0.02553276
  48      -0.00000000
  49      -0.01974371
  50       0.11387093
  51       0.00000000
  52       0.10928065
  53      -0.63027095
  54       0.00000000
  55      -0.12941585
  56       0.74639980
  57       0.00000000
  58       0.00000000
  59       0.00000000
  60      -0.02889823
  61       0.16666916
  62      -0.00000000
  63       0.00000000
  64       0.00000000
  65       0.00000000
  66       0.01574471
  67      -0.09080689
  68       0.00000000
Ene=     1.00427E-02
Spin= Alpha
Occup=   0.0000000000
   1       0.11992566
   2      -0.13313658
   3       0.87538093
   4      -1.54310057
   5       0.82219193
   6      -0.03116827
   7       0.09590755
   8      -0.05829023
   9      -0.00056648
  10      -0.00044668
  11       0.01138449
  12      -0.00000000
  13      -0.00000000
  14      -0.01488237
  15       0.00000000
  16      -0.00000000
  17      -0.61956702
  18       0.00000000
  19       0.00000000
  20       0.24327369
  21       0.00000000
  22       0.00000000
  23      -0.00984576
  24      -0.02419396
  25      -0.02419396
  26       0.00000000
  27      -0.00000000
  28       0.00000000
  29      -0.04876004
  30      -0.00893415
  31      -0.00893415
  32       0.00000000
  33      -0.00000000
  34      -0.00000000
  35       0.11992566
  36      -0.13313658
  37       0.87538098
  38      -1.54310056
  39       0.82219193
  40      -0.03116827
  41       0.09590755
  42      -0.05829023
  43      -0.00056648
  44      -0.00044668
  45      -0.01138449
  46       0.00000000
  47       0.00000000
  48       0.01488237
  49      -0.00000000
  50       0.00000000
  51       0.61956701
  52       0.00000000
  53      -0.00000000
  54      -0.24327369
  55      -0.00000000
  56      -0.00000000
  57      -0.00984576
  58      -0.02419396
  59      -0.02419396
  60      -0.00000000
  61       0.00000000
  62      -0.00000000
  63      -0.04876004
  64      -0.00893415
  65      -0.00893415
  66       0.00000000
  67       0.00000000
  68       0.00000000
Ene=     1.05005E-02
Spin= Alpha
Occup=   0.0000000000
   1       0.00329401
   2       0.08491020
   3     270.87681475
   4      45.54312964
   5      -0.31419087
   6       0.08263705
   7      -0.00316355
   8      -0.00605848
   9      -0.00163286
  10       0.00017455
  11      -0.10443178
  12      -0.00000000
  13      -0.00000001
  14      -0.32857728
  15      -0.00000002
  16       0.00000001
  17      35.31768390
  18       0.00000000
  19      -0.00000000
  20      11.16448184
  21      -0.00000000
  22       0.00000000
  23      -0.83856940
  24      -0.12292931
  25      -0.12292931
  26      -0.00000000
  27      -0.00000000
  28      -0.00000000
  29      -0.95901330
  30      -2.05315089
  31      -2.05315090
  32      -0.00000000
  33       0.00000000
  34       0.00000000
  35      -0.00329401
  36      -0.08491020
  37    -270.87681475
  38     -45.54312964
  39       0.31419087
  40      -0.08263705
  41       0.00316355
  42       0.00605848
  43       0.00163286
  44      -0.00017455
  45      -0.10443176
  46       0.00000000
  47       0.00000001
  48      -0.32857728
  49       0.00000002
  50      -0.00000001
  51      35.31768390
  52      -0.00000000
  53       0.00000000
  54      11.16448184
  55       0.00000000
  56      -0.00000000
  57       0.83856940
  58       0.12292931
  59       0.12292931
  60      -0.00000000
  61      -0.00000000
  62       0.00000000
  63       0.95901330
  64       2.05315089
  65       2.05315089
  66      -0.00000000
  67       0.00000000
  68      -0.00000000
Ene=     1.45840E-02
Spin= Alpha
Occup=   0.0000000000
   1      -0.00000000
   2      -0.00000000
   3      -0.00000000
   4       0.00000000
   5       0.00000000
   6       0.00000000
   7       0.00000000
   8      -0.00000000
   9      -0.00000000
  10       0.00000000
  11       0.00000000
  12      -0.00039944
  13       0.00068657
  14       0.00000000
  15       0.00031614
  16      -0.00054340
  17      -0.00000000
  18      -2.29545909
  19       3.94552843
  20       0.00000000
  21       1.45779378
  22      -2.50571523
  23       0.00000000
  24       0.00000000
  25       0.00000000
  26       0.01888038
  27      -0.03245237
  28       0.00000000
  29       0.00000000
  30       0.00000000
  31       0.00000000
  32      -0.05707243
  33       0.09809842
  34      -0.00000000
  35       0.00000000
  36       0.00000000
  37       0.00000000
  38      -0.00000000
  39      -0.00000000
  40      -0.00000000
  41      -0.00000000
  42       0.00000000
  43       0.00000000
  44      -0.00000000
  45       0.00000000
  46       0.00039944
  47      -0.00068657
  48       0.00000000
  49      -0.00031614
  50       0.00054340
  51      -0.00000000
  52       2.29545909
  53      -3.94552843
  54       0.00000000
  55      -1.45779378
  56       2.50571523
  57      -0.00000000
  58      -0.00000000
  59      -0.00000000
  60       0.01888038
  61      -0.03245237
  62      -0.00000000
  63      -0.00000000
  64      -0.00000000
  65      -0.00000000
  66      -0.05707243
  67       0.09809842
  68       0.00000000
Ene=     1.45840E-02
Spin= Alpha
Occup=   0.0000000000
   1      -0.00000000
   2      -0.00000000
   3      -0.00000000
   4       0.00000000
   5       0.00000000
   6       0.00000000
   7       0.00000000
   8      -0.00000000
   9      -0.00000000
  10       0.00000000
  11       0.00000000
  12      -0.00068657
  13      -0.00039944
  14       0.00000000
  15       0.00054340
  16       0.00031614
  17      -0.00000000
  18      -3.94552843
  19      -2.29545909
  20       0.00000000
  21       2.50571523
  22       1.45779378
  23       0.00000000
  24       0.00000000
  25       0.00000000
  26       0.03245237
  27       0.01888038
  28       0.00000000
  29       0.00000000
  30       0.00000000
  31       0.00000000
  32      -0.09809842
  33      -0.05707243
  34      -0.00000000
  35       0.00000000
  36       0.00000000
  37       0.00000000
  38      -0.00000000
  39      -0.00000000
  40      -0.00000000
  41      -0.00000000
  42       0.00000000
  43       0.00000000
  44      -0.00000000
  45       0.00000000
  46       0.00068657
  47       0.00039944
  48       0.00000000
  49      -0.00054340
  50      -0.00031614
  51      -0.00000000
  52       3.94552843
  53       2.29545909
  54       0.00000000
  55      -2.50571523
  56      -1.45779378
  57      -0.00000000
  58      -0.00000000
  59      -0.00000000
  60       0.03245237
  61       0.01888038
  62      -0.00000000
  63      -0.00000000
  64      -0.00000000
  65      -0.00000000
  66      -0.09809842
  67      -0.05707243
  68       0.00000000
Ene=     1.48759E-02
Spin= Alpha
Occup=   0.0000000000
   1      -0.52260140
   2      -0.91321419
   3       1.34374391
   4       0.00816409
   5      -0.64408234
   6       0.10881327
   7      -0.05390175
   8       0.02377188
   9      -0.00161226
  10       0.00044015
  11      -0.05092696
  12       0.00000000
  13      -0.00000000
  14      -0.17479386
  15       0.00000000
  16      -0.00000000
  17      -3.73568081
  18       0.00000000
  19      -0.00000000
  20       2.32228024
  21      -0.00000000
  22       0.00000000
  23       0.10617332
  24       0.05880743
  25       0.05880743
  26      -0.00000000
  27      -0.00000000
  28       0.00000000
  29       0.18071392
  30       0.35878091
  31       0.35878091
  32       0.00000000
  33      -0.00000000
  34      -0.00000000
  35      -0.52260140
  36      -0.91321419
  37       1.34374391
  38       0.00816409
  39      -0.64408234
  40       0.10881327
  41      -0.05390175
  42       0.02377188
  43      -0.00161226
  44       0.00044015
  45       0.05092696
  46       0.00000000
  47       0.00000000
  48       0.17479386
  49      -0.00000000
  50       0.00000000
  51       3.73568081
  52      -0.00000000
  53       0.00000000
  54      -2.32228024
  55       0.00000000
  56      -0.00000000
  57       0.10617332
  58       0.05880743
  59       0.05880743
  60       0.00000000
  61       0.00000000
  62      -0.00000000
  63       0.18071392
  64       0.35878091
  65       0.35878091
  66      -0.00000000
  67      -0.00000000
  68       0.00000000
Ene=     1.60575E-02
Spin= Alpha
Occup=   0.0000000000
   1      -0.00621439
   2      -0.06861365
   3    -169.57243889
   4      14.74859643
   5       1.37452677
   6       0.03159325
   7       0.11598326
   8      -0.07757820
   9      -0.00233336
  10      -0.00038558
  11       0.15317732
  12       0.00000000
  13       0.00000001
  14       0.36698287
  15       0.00000001
  16      -0.00000000
  17     -23.11201605
  18       0.00000000
  19      -0.00000000
  20       4.31439746
  21      -0.00000000
  22       0.00000000
  23       0.89734301
  24       0.43308312
  25       0.43308311
  26       0.00000000
  27       0.00000000
  28       0.00000000
  29       1.53092393
  30       2.21353676
  31       2.21353676
  32       0.00000000
  33      -0.00000000
  34      -0.00000000
  35       0.00621439
  36       0.06861365
  37     169.57243889
  38     -14.74859643
  39      -1.37452677
  40      -0.03159325
  41      -0.11598326
  42       0.07757820
  43       0.00233336
  44       0.00038558
  45       0.15317732
  46      -0.00000000
  47      -0.00000001
  48       0.36698287
  49      -0.00000001
  50       0.00000000
  51     -23.11201605
  52      -0.00000000
  53       0.00000000
  54       4.31439746
  55       0.00000000
  56      -0.00000000
  57      -0.89734301
  58      -0.43308311
  59      -0.43308311
  60       0.00000000
  61       0.00000000
  62      -0.00000000
  63      -1.53092393
  64      -2.21353676
  65      -2.21353676
  66       0.00000000
  67      -0.00000000
  68       0.00000000
Ene=     2.20306E-02
Spin= Alpha
Occup=   0.0000000000
   1      -0.01607956
   2      -0.14373427
   3    -400.67433889
   4      72.97313306
   5      -2.04928953
   6       0.10709189
   7      -0.10950310
   8       0.06021642
   9      -0.00036396
  10       0.00060686
  11       0.39291271
  12       0.00000000
  13       0.00000002
  14       0.62745909
  15       0.00000003
  16      -0.00000001
  17     -53.33733540
  18      -0.00000000
  19       0.00000000
  20      16.38595437
  21      -0.00000000
  22       0.00000000
  23       2.19528773
  24       1.38544840
  25       1.38544840
  26       0.00000000
  27       0.00000000
  28       0.00000000
  29       3.38565552
  30       4.60447061
  31       4.60447061
  32       0.00000000
  33      -0.00000000
  34      -0.00000000
  35       0.01607956
  36       0.14373426
  37     400.67433889
  38     -72.97313306
  39       2.04928953
  40      -0.10709189
  41       0.10950310
  42      -0.06021642
  43       0.00036396
  44      -0.00060686
  45       0.39291268
  46      -0.00000000
  47      -0.00000002
  48       0.62745908
  49      -0.00000003
  50       0.00000001
  51     -53.33733540
  52       0.00000000
  53      -0.00000000
  54      16.38595437
  55       0.00000000
  56      -0.00000000
  57      -2.19528773
  58      -1.38544840
  59      -1.38544840
  60       0.00000000
  61       0.00000000
  62      -0.00000000
  63      -3.38565551
  64      -4.60447061
  65      -4.60447061
  66       0.00000000
  67      -0.00000000
  68       0.00000000
Ene=     2.58782E-02
Spin= Alpha
Occup=   0.0000000000
   1       3.00193778
   2       3.01729418
   3      -4.01728241
   4       1.68862747
   5      -0.23931121
   6      -0.19634723
   7      -0.00117560
   8       0.01992380
   9       0.00450559
  10      -0.00044740
  11       0.28688813
  12       0.00000000