[Molden Format]
[Atoms] AU
E+       1       4     0.00000000     0.00000000     0.00000000
E+       2       4    34.40000000     0.00000000     0.00000000
[GTO]
  1 0
s  1 1.00
   1.0000000000E-04   1.0000000000E+00
s  1 1.00
   3.0000000000E-04   1.0000000000E+00
s  1 1.00
   9.0000000000E-04   1.0000000000E+00
s  1 1.00
   2.7000000000E-03   1.0000000000E+00
s  1 1.00
   8.1000000000E-03   1.0000000000E+00
s  1 1.00
   2.4300000000E-02   1.0000000000E+00
s  1 1.00
   7.2900000000E-02   1.0000000000E+00
s  1 1.00
   2.1870000000E-01   1.0000000000E+00
s  1 1.00
   6.5610000000E-01   1.0000000000E+00
s  1 1.00
   1.9683000000E+00   1.0000000000E+00
p  1 1.00
   1.0000000000E-04   1.0000000000E+00
p  1 1.00
   3.0000000000E-04   1.0000000000E+00
p  1 1.00
   9.0000000000E-04   1.0000000000E+00
p  1 1.00
   2.7000000000E-03   1.0000000000E+00
d  1 1.00
   1.0000000000E-04   1.0000000000E+00
d  1 1.00
   3.0000000000E-04   1.0000000000E+00
 
  2 0
s  1 1.00
   1.0000000000E-04   1.0000000000E+00
s  1 1.00
   3.0000000000E-04   1.0000000000E+00
s  1 1.00
   9.0000000000E-04   1.0000000000E+00
s  1 1.00
   2.7000000000E-03   1.0000000000E+00
s  1 1.00
   8.1000000000E-03   1.0000000000E+00
s  1 1.00
   2.4300000000E-02   1.0000000000E+00
s  1 1.00
   7.2900000000E-02   1.0000000000E+00
s  1 1.00
   2.1870000000E-01   1.0000000000E+00
s  1 1.00
   6.5610000000E-01   1.0000000000E+00
s  1 1.00
   1.9683000000E+00   1.0000000000E+00
p  1 1.00
   1.0000000000E-04   1.0000000000E+00
p  1 1.00
   3.0000000000E-04   1.0000000000E+00
p  1 1.00
   9.0000000000E-04   1.0000000000E+00
p  1 1.00
   2.7000000000E-03   1.0000000000E+00
d  1 1.00
   1.0000000000E-04   1.0000000000E+00
d  1 1.00
   3.0000000000E-04   1.0000000000E+00
 
 
[MO]
Ene=    -3.78061E-03
Spin= Alpha
Occup=   1.0000000000
   1       0.07198517
   2      -0.06278450
   3      -0.00140849
   4      -0.22611142
   5      -0.27760477
   6      -0.19047478
   7      -0.11957637
   8       0.09646897
   9       0.00655627
  10      -0.00008718
  11      -0.25303699
  12       0.00000000
  13      -0.00000000
  14       0.08717236
  15      -0.00000000
  16       0.00000000
  17      -0.05178577
  18       0.00000000
  19       0.00000000
  20       0.00974360
  21       0.00000000
  22      -0.00000000
  23      -0.07496385
  24       0.00227753
  25       0.00227753
  26       0.00000000
  27      -0.00000000
  28      -0.00000000
  29       0.04645516
  30       0.00943113
  31       0.00943113
  32      -0.00000000
  33       0.00000000
  34       0.00000000
  35       0.07198517
  36      -0.06278450
  37      -0.00140849
  38      -0.22611142
  39      -0.27760477
  40      -0.19047478
  41      -0.11957637
  42       0.09646897
  43       0.00655627
  44      -0.00008718
  45       0.25303699
  46      -0.00000000
  47       0.00000000
  48      -0.08717236
  49       0.00000000
  50      -0.00000000
  51       0.05178577
  52      -0.00000000
  53       0.00000000
  54      -0.00974360
  55       0.00000000
  56      -0.00000000
  57      -0.07496385
  58       0.00227753
  59       0.00227753
  60       0.00000000
  61      -0.00000000
  62       0.00000000
  63       0.04645516
  64       0.00943113
  65       0.00943113
  66      -0.00000000
  67       0.00000000
  68       0.00000000
Ene=    -3.29359E-03
Spin= Alpha
Occup=   0.0000000000
   1       0.00203300
   2       0.00784612
   3       0.03491594
   4       0.29788449
   5       0.27361324
   6       0.20988873
   7       0.12263374
   8      -0.10048663
   9      -0.00712292
  10       0.00013238
  11      -0.01016791
  12       0.00000000
  13       0.00000000
  14      -0.01895501
  15      -0.00000000
  16      -0.00000000
  17       0.06877868
  18       0.00000000
  19       0.00000000
  20       0.00696850
  21      -0.00000000
  22       0.00000000
  23      -0.01563865
  24      -0.00749814
  25      -0.00749814
  26       0.00000000
  27       0.00000000
  28       0.00000000
  29      -0.02675954
  30      -0.03477732
  31      -0.03477732
  32      -0.00000000
  33      -0.00000000
  34      -0.00000000
  35      -0.00203300
  36      -0.00784612
  37      -0.03491594
  38      -0.29788449
  39      -0.27361324
  40      -0.20988873
  41      -0.12263374
  42       0.10048663
  43       0.00712292
  44      -0.00013238
  45      -0.01016791
  46      -0.00000000
  47      -0.00000000
  48      -0.01895501
  49       0.00000000
  50       0.00000000
  51       0.06877868
  52       0.00000000
  53      -0.00000000
  54       0.00696850
  55      -0.00000000
  56       0.00000000
  57       0.01563865
  58       0.00749814
  59       0.00749814
  60       0.00000000
  61       0.00000000
  62       0.00000000
  63       0.02675954
  64       0.03477732
  65       0.03477732
  66      -0.00000000
  67      -0.00000000
  68      -0.00000000
Ene=     4.13194E-03
Spin= Alpha
Occup=   0.0000000000
   1      -0.72086265
   2      -0.03125474
   3       1.06192471
   4      -0.74478189
   5      -0.04330266
   6      -0.11164678
   7      -0.03609819
   8       0.03457060
   9       0.00335001
  10      -0.00017036
  11       1.60448339
  12      -0.00000000
  13       0.00000000
  14      -0.50333815
  15      -0.00000000
  16      -0.00000000
  17       0.48783059
  18       0.00000000
  19       0.00000000
  20      -0.04959436
  21      -0.00000000
  22      -0.00000000
  23       0.50834825
  24       0.02429736
  25       0.02429736
  26      -0.00000000
  27       0.00000000
  28       0.00000000
  29      -0.10337725
  30       0.08504038
  31       0.08504038
  32      -0.00000000
  33      -0.00000000
  34      -0.00000000
  35      -0.72086265
  36      -0.03125474
  37       1.06192471
  38      -0.74478189
  39      -0.04330266
  40      -0.11164678
  41      -0.03609819
  42       0.03457060
  43       0.00335001
  44      -0.00017036
  45      -1.60448339
  46       0.00000000
  47      -0.00000000
  48       0.50333815
  49       0.00000000
  50       0.00000000
  51      -0.48783059
  52       0.00000000
  53      -0.00000000
  54       0.04959436
  55       0.00000000
  56       0.00000000
  57       0.50834825
  58       0.02429736
  59       0.02429736
  60       0.00000000
  61       0.00000000
  62      -0.00000000
  63      -0.10337725
  64       0.08504038
  65       0.08504038
  66      -0.00000000
  67      -0.00000000
  68       0.00000000
Ene=     5.52174E-03
Spin= Alpha
Occup=   0.0000000000
   1      -0.00000000
   2      -0.00000000
   3      -0.00000000
   4       0.00000000
   5      -0.00000000
   6       0.00000000
   7      -0.00000000
   8       0.00000000
   9      -0.00000000
  10       0.00000000
  11       0.00000000
  12       0.02656604
  13       0.00327909
  14       0.00000000
  15      -0.08610094
  16      -0.01062759
  17       0.00000000
  18       0.30964741
  19       0.03822031
  20      -0.00000000
  21       0.37594389
  22       0.04640340
  23       0.00000000
  24      -0.00000000
  25      -0.00000000
  26      -0.00222980
  27      -0.00027523
  28       0.00000000
  29       0.00000000
  30      -0.00000000
  31      -0.00000000
  32       0.02811045
  33       0.00346972
  34      -0.00000000
  35      -0.00000000
  36      -0.00000000
  37      -0.00000000
  38       0.00000000
  39      -0.00000000
  40       0.00000000
  41      -0.00000000
  42      -0.00000000
  43       0.00000000
  44      -0.00000000
  45      -0.00000000
  46       0.02656604
  47       0.00327909
  48      -0.00000000
  49      -0.08610094
  50      -0.01062759
  51       0.00000000
  52       0.30964741
  53       0.03822031
  54       0.00000000
  55       0.37594389
  56       0.04640340
  57       0.00000000
  58      -0.00000000
  59      -0.00000000
  60       0.00222980
  61       0.00027523
  62      -0.00000000
  63       0.00000000
  64      -0.00000000
  65      -0.00000000
  66      -0.02811045
  67      -0.00346972
  68       0.00000000
Ene=     5.52174E-03
Spin= Alpha
Occup=   0.0000000000
   1      -0.00000000
   2       0.00000000
   3      -0.00000000
   4      -0.00000000
   5       0.00000000
   6       0.00000000
   7      -0.00000000
   8       0.00000000
   9       0.00000000
  10      -0.00000000
  11       0.00000000
  12       0.00327909
  13      -0.02656604
  14      -0.00000000
  15      -0.01062759
  16       0.08610094
  17      -0.00000000
  18       0.03822031
  19      -0.30964741
  20       0.00000000
  21       0.04640340
  22      -0.37594389
  23       0.00000000
  24       0.00000000
  25      -0.00000000
  26      -0.00027523
  27       0.00222980
  28      -0.00000000
  29      -0.00000000
  30       0.00000000
  31       0.00000000
  32       0.00346972
  33      -0.02811045
  34       0.00000000
  35      -0.00000000
  36       0.00000000
  37       0.00000000
  38       0.00000000
  39       0.00000000
  40      -0.00000000
  41       0.00000000
  42      -0.00000000
  43      -0.00000000
  44       0.00000000
  45      -0.00000000
  46       0.00327909
  47      -0.02656604
  48       0.00000000
  49      -0.01062759
  50       0.08610094
  51      -0.00000000
  52       0.03822031
  53      -0.30964741
  54       0.00000000
  55       0.04640340
  56      -0.37594389
  57       0.00000000
  58      -0.00000000
  59       0.00000000
  60       0.00027523
  61      -0.00222980
  62      -0.00000000
  63      -0.00000000
  64      -0.00000000
  65      -0.00000000
  66      -0.00346972
  67       0.02811045
  68       0.00000000
Ene=     7.98057E-03
Spin= Alpha
Occup=   0.0000000000
   1       0.00000000
   2      -0.00000000
   3       0.00000000
   4       0.00000000
   5      -0.00000000
   6       0.00000000
   7      -0.00000000
   8       0.00000000
   9       0.00000000
  10      -0.00000000
  11      -0.00000000
  12      -0.60498661
  13      -0.55377258
  14      -0.00000000
  15       0.09028373
  16       0.08264092
  17       0.00000000
  18      -0.10678889
  19      -0.09774887
  20       0.00000000
  21      -0.53576685
  22      -0.49041249
  23      -0.00000000
  24       0.00000000
  25       0.00000000
  26      -0.10189985
  27      -0.09327370
  28      -0.00000000
  29      -0.00000000
  30       0.00000000
  31       0.00000000
  32       0.01190710
  33       0.01089913
  34       0.00000000
  35      -0.00000000
  36       0.00000000
  37      -0.00000000
  38       0.00000000
  39       0.00000000
  40       0.00000000
  41       0.00000000
  42      -0.00000000
  43      -0.00000000
  44       0.00000000
  45       0.00000000
  46       0.60498661
  47       0.55377258
  48      -0.00000000
  49      -0.09028373
  50      -0.08264092
  51       0.00000000
  52       0.10678889
  53       0.09774887
  54       0.00000000
  55       0.53576685
  56       0.49041249
  57      -0.00000000
  58      -0.00000000
  59       0.00000000
  60      -0.10189985
  61      -0.09327370
  62       0.00000000
  63       0.00000000
  64       0.00000000
  65       0.00000000
  66       0.01190710
  67       0.01089913
  68       0.00000000
Ene=     7.98057E-03
Spin= Alpha
Occup=   0.0000000000
   1      -0.00000000
   2      -0.00000000
   3       0.00000000
   4      -0.00000000
   5      -0.00000000
   6      -0.00000000
   7       0.00000000
   8       0.00000000
   9      -0.00000000
  10       0.00000000
  11      -0.00000000
  12       0.55377258
  13      -0.60498661
  14      -0.00000000
  15      -0.08264092
  16       0.09028373
  17       0.00000000
  18       0.09774887
  19      -0.10678889
  20      -0.00000000
  21       0.49041249
  22      -0.53576685
  23      -0.00000000
  24       0.00000000
  25       0.00000000
  26       0.09327370
  27      -0.10189985
  28      -0.00000000
  29      -0.00000000
  30       0.00000000
  31       0.00000000
  32      -0.01089913
  33       0.01190710
  34       0.00000000
  35       0.00000000
  36       0.00000000
  37      -0.00000000
  38      -0.00000000
  39       0.00000000
  40      -0.00000000
  41       0.00000000
  42      -0.00000000
  43       0.00000000
  44      -0.00000000
  45      -0.00000000
  46      -0.55377258
  47       0.60498661
  48      -0.00000000
  49       0.08264092
  50      -0.09028373
  51       0.00000000
  52      -0.09774887
  53       0.10678889
  54       0.00000000
  55      -0.49041249
  56       0.53576685
  57       0.00000000
  58      -0.00000000
  59      -0.00000000
  60       0.09327370
  61      -0.10189985
  62       0.00000000
  63      -0.00000000
  64      -0.00000000
  65      -0.00000000
  66      -0.01089913
  67       0.01190710
  68      -0.00000000
Ene=     8.81433E-03
Spin= Alpha
Occup=   0.0000000000
   1      -0.02436828
   2       0.00796116
   3       3.08545965
   4       0.15871323
   5      -0.55549563
   6      -0.01824924
   7      -0.08057158
   8       0.05307141
   9       0.00166160
  10       0.00023869
  11       0.12925972
  12      -0.00000000
  13      -0.00000000
  14      -0.03211603
  15       0.00000000
  16       0.00000000
  17       1.16334913
  18      -0.00000000
  19      -0.00000000
  20       0.24549336
  21       0.00000000
  22       0.00000000
  23       0.09954089
  24       0.18601328
  25       0.18601328
  26      -0.00000000
  27      -0.00000000
  28       0.00000000
  29       0.26038096
  30       0.10766631
  31       0.10766631
  32       0.00000000
  33       0.00000000
  34       0.00000000
  35       0.02436828
  36      -0.00796116
  37      -3.08545965
  38      -0.15871323
  39       0.55549563
  40       0.01824924
  41       0.08057158
  42      -0.05307141
  43      -0.00166160
  44      -0.00023869
  45       0.12925972
  46       0.00000000
  47       0.00000000
  48      -0.03211603
  49      -0.00000000
  50      -0.00000000
  51       1.16334913
  52       0.00000000
  53      -0.00000000
  54       0.24549336
  55      -0.00000000
  56      -0.00000000
  57      -0.09954089
  58      -0.18601328
  59      -0.18601328
  60      -0.00000000
  61      -0.00000000
  62      -0.00000000
  63      -0.26038096
  64      -0.10766631
  65      -0.10766631
  66       0.00000000
  67       0.00000000
  68       0.00000000
Ene=     9.24736E-03
Spin= Alpha
Occup=   0.0000000000
   1      -0.32132345
   2       0.25107019
   3       0.33500767
   4      -0.61136436
   5       0.33117079
   6      -0.04797452
   7       0.03858284
   8      -0.01960394
   9       0.00060049
  10      -0.00026112
  11       1.29338193
  12       0.00000000
  13       0.00000000
  14      -0.36320167
  15      -0.00000000
  16      -0.00000000
  17       0.38356191
  18       0.00000000
  19       0.00000000
  20      -0.70632564
  21      -0.00000000
  22      -0.00000000
  23       0.37409266
  24      -0.01851851
  25      -0.01851851
  26       0.00000000
  27       0.00000000
  28      -0.00000000
  29      -0.19971092
  30      -0.06256708
  31      -0.06256708
  32      -0.00000000
  33      -0.00000000
  34       0.00000000
  35      -0.32132345
  36       0.25107019
  37       0.33500767
  38      -0.61136436
  39       0.33117079
  40      -0.04797452
  41       0.03858284
  42      -0.01960394
  43       0.00060049
  44      -0.00026112
  45      -1.29338193
  46      -0.00000000
  47      -0.00000000
  48       0.36320167
  49       0.00000000
  50       0.00000000
  51      -0.38356191
  52      -0.00000000
  53      -0.00000000
  54       0.70632564
  55       0.00000000
  56       0.00000000
  57       0.37409266
  58      -0.01851851
  59      -0.01851851
  60       0.00000000
  61       0.00000000
  62      -0.00000000
  63      -0.19971092
  64      -0.06256708
  65      -0.06256708
  66      -0.00000000
  67      -0.00000000
  68       0.00000000
Ene=     1.26539E-02
Spin= Alpha
Occup=   0.0000000000
   1      -0.00000000
   2       0.00000000
   3       0.00000000
   4       0.00000000
   5      -0.00000000
   6       0.00000000
   7      -0.00000000
   8      -0.00000000
   9      -0.00000000
  10       0.00000000
  11       0.00000000
  12       0.02361205
  13       0.06135989
  14      -0.00000000
  15      -0.07975754
  16      -0.20726345
  17       0.00000000
  18       0.34496785
  19       0.89645726
  20       0.00000000
  21      -0.33498962
  22      -0.87052714
  23       0.00000000
  24      -0.00000000
  25      -0.00000000
  26      -0.00058650
  27      -0.00152413
  28      -0.00000000
  29      -0.00000000
  30      -0.00000000
  31      -0.00000000
  32       0.02298667
  33       0.05973475
  34       0.00000000
  35      -0.00000000
  36       0.00000000
  37      -0.00000000
  38       0.00000000
  39      -0.00000000
  40      -0.00000000
  41      -0.00000000
  42       0.00000000
  43       0.00000000
  44      -0.00000000
  45      -0.00000000
  46       0.02361205
  47       0.06135989
  48       0.00000000
  49      -0.07975754
  50      -0.20726345
  51       0.00000000
  52       0.34496785
  53       0.89645726
  54       0.00000000
  55      -0.33498962
  56      -0.87052714
  57       0.00000000
  58      -0.00000000
  59      -0.00000000
  60       0.00058650
  61       0.00152413
  62       0.00000000
  63      -0.00000000
  64      -0.00000000
  65      -0.00000000
  66      -0.02298667
  67      -0.05973475
  68      -0.00000000
Ene=     1.26539E-02
Spin= Alpha
Occup=   0.0000000000
   1       0.00000000
   2      -0.00000000
   3      -0.00000000
   4       0.00000000
   5      -0.00000000
   6       0.00000000
   7      -0.00000000
   8       0.00000000
   9       0.00000000
  10       0.00000000
  11      -0.00000000
  12      -0.06135989
  13       0.02361205
  14       0.00000000
  15       0.20726345
  16      -0.07975754
  17      -0.00000000
  18      -0.89645726
  19       0.34496785
  20      -0.00000000
  21       0.87052714
  22      -0.33498962
  23      -0.00000000
  24       0.00000000
  25       0.00000000
  26       0.00152413
  27      -0.00058650
  28       0.00000000
  29       0.00000000
  30       0.00000000
  31       0.00000000
  32      -0.05973475
  33       0.02298667
  34      -0.00000000
  35       0.00000000
  36      -0.00000000
  37      -0.00000000
  38       0.00000000
  39      -0.00000000
  40       0.00000000
  41      -0.00000000
  42       0.00000000
  43       0.00000000
  44       0.00000000
  45       0.00000000
  46      -0.06135989
  47       0.02361205
  48      -0.00000000
  49       0.20726345
  50      -0.07975754
  51       0.00000000
  52      -0.89645726
  53       0.34496785
  54       0.00000000
  55       0.87052714
  56      -0.33498962
  57      -0.00000000
  58       0.00000000
  59       0.00000000
  60      -0.00152413
  61       0.00058650
  62      -0.00000000
  63       0.00000000
  64       0.00000000
  65       0.00000000
  66       0.05973475
  67      -0.02298667
  68       0.00000000
Ene=     1.26567E-02
Spin= Alpha
Occup=   0.0000000000
   1      -0.31148655
   2       0.26495996
   3       0.31402300
   4      -1.65129845
   5       1.00631994
   6      -0.01080985
   7       0.11488778
   8      -0.07191159
   9      -0.00152814
  10      -0.00042922
  11       1.48535166
  12       0.00000000
  13      -0.00000000
  14      -0.26792377
  15      -0.00000000
  16      -0.00000000
  17       0.45719000
  18      -0.00000000
  19       0.00000000
  20       0.04431366
  21       0.00000000
  22      -0.00000000
  23       0.41800384
  24      -0.02865839
  25      -0.02865839
  26       0.00000000
  27      -0.00000000
  28      -0.00000000
  29      -0.17297389
  30      -0.10289428
  31      -0.10289428
  32      -0.00000000
  33       0.00000000
  34       0.00000000
  35      -0.31148655
  36       0.26495996
  37       0.31402300
  38      -1.65129845
  39       1.00631994
  40      -0.01080985
  41       0.11488778
  42      -0.07191159
  43      -0.00152814
  44      -0.00042922
  45      -1.48535166
  46      -0.00000000
  47       0.00000000
  48       0.26792377
  49       0.00000000
  50      -0.00000000
  51      -0.45719000
  52      -0.00000000
  53       0.00000000
  54      -0.04431366
  55       0.00000000
  56      -0.00000000
  57       0.41800384
  58      -0.02865839
  59      -0.02865839
  60       0.00000000
  61      -0.00000000
  62       0.00000000
  63      -0.17297389
  64      -0.10289428
  65      -0.10289428
  66      -0.00000000
  67      -0.00000000
  68      -0.00000000
Ene=     1.32412E-02
Spin= Alpha
Occup=   0.0000000000
   1       0.01729781
   2       0.01431309
   3      -1.43583406
   4       0.08782618
   5      -0.00415460
   6      -0.07689193
   7      -0.00854020
   8       0.01312804
   9       0.00197046
  10      -0.00016166
  11      -0.09014563
  12       0.00000000
  13       0.00000000
  14      -0.02647798
  15      -0.00000000
  16      -0.00000000
  17      -0.41328574
  18       0.00000000
  19       0.00000000
  20      -1.16047890
  21      -0.00000000
  22      -0.00000000
  23      -0.09008989
  24      -0.11332887
  25      -0.11332887
  26       0.00000000
  27       0.00000000
  28      -0.00000000
  29      -0.19284183
  30      -0.13684646
  31      -0.13684646
  32      -0.00000000
  33      -0.00000000
  34       0.00000000
  35      -0.01729781
  36      -0.01431309
  37       1.43583406
  38      -0.08782618
  39       0.00415460
  40       0.07689193
  41       0.00854020
  42      -0.01312804
  43      -0.00197046
  44       0.00016166
  45      -0.09014563
  46      -0.00000000
  47      -0.00000000
  48      -0.02647798
  49       0.00000000
  50       0.00000000
  51      -0.41328574
  52       0.00000000
  53      -0.00000000
  54      -1.16047890
  55      -0.00000000
  56       0.00000000
  57       0.09008989
  58       0.11332887
  59       0.11332887
  60       0.00000000
  61       0.00000000
  62       0.00000000
  63       0.19284183
  64       0.13684646
  65       0.13684646
  66      -0.00000000
  67      -0.00000000
  68       0.00000000
Ene=     1.77190E-02
Spin= Alpha
Occup=   0.0000000000
   1      -0.01200892
   2       0.04289971
   3       4.99842599
   4      -2.95418074
   5       1.32470421
   6      -0.09181801
   7       0.11650010
   8      -0.06503851
   9       0.00021511
  10      -0.00061735
  11       0.06723246
  12      -0.00000000
  13       0.00000000
  14      -0.07797340
  15       0.00000000
  16      -0.00000000
  17       1.96212735
  18      -0.00000000
  19       0.00000000
  20      -0.41859075
  21       0.00000000
  22      -0.00000000
  23       0.00744175
  24       0.12850736
  25       0.12850736
  26      -0.00000000
  27       0.00000000
  28      -0.00000000
  29       0.14288486
  30      -0.04910385
  31      -0.04910385
  32       0.00000000
  33      -0.00000000
  34       0.00000000
  35       0.01200892
  36      -0.04289971
  37      -4.99842599
  38       2.95418074
  39      -1.32470421
  40       0.09181801
  41      -0.11650010
  42       0.06503851
  43      -0.00021511
  44       0.00061735
  45       0.06723246
  46       0.00000000
  47      -0.00000000
  48      -0.07797340
  49      -0.00000000
  50       0.00000000
  51       1.96212735
  52       0.00000000
  53      -0.00000000
  54      -0.41859075
  55      -0.00000000
  56       0.00000000
  57      -0.00744175
  58      -0.12850736
  59      -0.12850736
  60      -0.00000000
  61       0.00000000
  62       0.00000000
  63      -0.14288486
  64       0.04910385
  65       0.04910385
  66       0.00000000
  67      -0.00000000
  68      -0.00000000
Ene=     1.87886E-02
Spin= Alpha
Occup=   0.0000000000
   1      -0.00000000
   2       0.00000000
   3       0.00000000
   4      -0.00000000
   5       0.00000000
   6      -0.00000000
   7       0.00000000
   8      -0.00000000
   9      -0.00000000
  10      -0.00000000
  11       0.00000000
  12       8.38966763
  13       3.68220796
  14       0.00000000
  15      -1.82392763
  16      -0.80051811
  17       0.00000000
  18       1.66973881
  19       0.73284495
  20      -0.00000000
  21      -0.79231681
  22      -0.34774623
  23       0.00000000
  24      -0.00000000
  25      -0.00000000
  26       1.42770493
  27       0.62661677
  28       0.00000000
  29       0.00000000
  30      -0.00000000
  31      -0.00000000
  32      -0.37099174
  33      -0.16282751
  34      -0.00000000
  35       0.00000000
  36      -0.00000000
  37      -0.00000000
  38       0.00000000
  39      -0.00000000
  40       0.00000000
  41      -0.00000000
  42       0.00000000
  43      -0.00000000
  44       0.00000000
  45      -0.00000000
  46      -8.38966763
  47      -3.68220796
  48       0.00000000
  49       1.82392763
  50       0.80051811
  51       0.00000000
  52      -1.66973881
  53      -0.73284495
  54       0.00000000
  55       0.79231681
  56       0.34774623
  57       0.00000000
  58      -0.00000000
  59      -0.00000000
  60       1.42770493
  61       0.62661677
  62      -0.00000000
  63      -0.00000000
  64      -0.00000000
  65      -0.00000000
  66      -0.37099174
  67      -0.16282751
  68       0.00000000
Ene=     1.87886E-02
Spin= Alpha
Occup=   0.0000000000
   1       0.00000000
   2       0.00000000
   3      -0.00000000
   4       0.00000000
   5      -0.00000000
   6       0.00000000
   7      -0.00000000
   8       0.00000000
   9       0.00000000
  10      -0.00000000
  11       0.00000000
  12      -3.68220796
  13       8.38966763
  14       0.00000000
  15       0.80051811
  16      -1.82392763
  17      -0.00000000
  18      -0.73284495
  19       1.66973881
  20       0.00000000
  21       0.34774623
  22      -0.79231681
  23      -0.00000000
  24       0.00000000
  25       0.00000000
  26      -0.62661677
  27       1.42770493
  28       0.00000000
  29       0.00000000
  30       0.00000000
  31       0.00000000
  32       0.16282751
  33      -0.37099174
  34      -0.00000000
  35      -0.00000000
  36      -0.00000000
  37       0.00000000
  38      -0.00000000
  39       0.00000000
  40       0.00000000
  41       0.00000000
  42      -0.00000000
  43      -0.00000000
  44       0.00000000
  45       0.00000000
  46       3.68220796
  47      -8.38966763
  48       0.00000000
  49      -0.80051811
  50       1.82392763
  51      -0.00000000
  52       0.73284495
  53      -1.66973881
  54       0.00000000
  55      -0.34774623
  56       0.79231681
  57      -0.00000000
  58      -0.00000000
  59       0.00000000
  60      -0.62661677
  61       1.42770493
  62      -0.00000000
  63      -0.00000000
  64       0.00000000
  65       0.00000000
  66       0.16282751
  67      -0.37099174
  68       0.00000000
Ene=     2.28578E-02
Spin= Alpha
Occup=   0.0000000000
   1      -1.59926045
   2       1.63186380
   3      -1.79232834
   4       1.20290954
   5      -0.44765951
   6      -0.03560449
   7      -0.03442391
   8       0.02537647
   9       0.00141168
  10       0.00003101
  11       5.83640926
  12       0.00000000
  13       0.00000000
  14      -1.58095987
  15      -0.00000000
  16      -0.00000000
  17       1.28649489
  18      -0.00000000
  19      -0.00000000
  20      -0.62971050
  21       0.00000000
  22       0.00000000
  23       1.72012887
  24      -0.05880341
  25      -0.05880341
  26       0.00000000
  27       0.00000000
  28       0.00000000
  29      -0.92362839
  30      -0.30225613
  31      -0.30225613
  32      -0.00000000
  33      -0.00000000
  34      -0.00000000
  35      -1.59926045
  36       1.63186380
  37      -1.79232834
  38       1.20290954
  39      -0.44765951
  40      -0.03560449
  41      -0.03442391
  42       0.02537647
  43       0.00141168
  44       0.00003101
  45      -5.83640926
  46      -0.00000000
  47      -0.00000000
  48       1.58095987
  49       0.00000000
  50       0.00000000
  51      -1.28649489
  52       0.00000000
  53       0.00000000
  54       0.62971050
  55      -0.00000000
  56      -0.00000000
  57       1.72012887
  58      -0.05880341
  59      -0.05880341
  60       0.00000000
  61       0.00000000
  62      -0.00000000
  63      -0.92362839
  64      -0.30225613
  65      -0.30225613
  66      -0.00000000
  67      -0.00000000
  68       0.00000000
Ene=     2.55424E-02
Spin= Alpha
Occup=   0.0000000000
   1      -0.07098667
   2      -0.32905165
   3      -3.30380594
   4       0.14834409
   5      -0.04823525
   6       0.04585351
   7      -0.00182346
   8      -0.00315697
   9      -0.00096157
  10       0.00010648
  11       0.35246131
  12       0.00000000
  13       0.00000000
  14       0.77068637
  15      -0.00000000
  16      -0.00000000
  17      -4.06767406
  18       0.00000000
  19       0.00000000
  20       0.94866236
  21       0.00000000
  22      -0.00000000
  23       0.57784837
  24       0.26063227
  25       0.26063227
  26       0.00000000
  27       0.00000000
  28      -0.00000000
  29       0.97665384
  30       1.26722491
  31       1.26722491
  32      -0.00000000
  33      -0.00000000
  34       0.00000000
  35       0.07098667
  36       0.32905165
  37       3.30380594
  38      -0.14834409
  39       0.04823525
  40      -0.04585351
  41       0.00182346
  42       0.00315697
  43       0.00096157
  44      -0.00010648
  45       0.35246131
  46      -0.00000000
  47      -0.00000000
  48       0.77068637
  49       0.00000000
  50       0.00000000
  51      -4.06767406
  52      -0.00000000
  53      -0.00000000
  54       0.94866236
  55      -0.00000000
  56       0.00000000
  57      -0.57784837
  58      -0.26063227
  59      -0.26063227
  60       0.00000000
  61       0.00000000
  62       0.00000000
  63      -0.97665384
  64      -1.26722491
  65      -1.26722491
  66      -0.00000000
  67      -0.00000000
  68      -0.00000000
Ene=     2.90301E-02
Spin= Alpha
Occup=   0.0000000000
   1      -5.13701317
   2      -2.19423645
   3       4.77471060
   4      -2.11342908
   5       0.42851888
   6       0.12700470
   7       0.01871040
   8      -0.02457514
   9      -0.00336603
  10       0.00024947
  11       4.69982785
  12       0.00000000