 Molden2AIM, Version 3.1.0 (02/25/2015)           Time: Thu Oct 17 19:55:56 2024
GAUSSIAN             68 MOL ORBITALS     68 PRIMITIVES        2 NUCLEI
  Be   1    (CENTRE  1)   0.00000000  0.00000000  0.00000000  CHARGE =  4.0
  Be   2    (CENTRE  2)  52.60000000  0.00000000  0.00000000  CHARGE =  4.0
CENTRE ASSIGNMENTS    1  1  1  1  1  1  1  1  1  1  1  1  1  1  1  1  1  1  1  1
CENTRE ASSIGNMENTS    1  1  1  1  1  1  1  1  1  1  1  1  1  1  2  2  2  2  2  2
CENTRE ASSIGNMENTS    2  2  2  2  2  2  2  2  2  2  2  2  2  2  2  2  2  2  2  2
CENTRE ASSIGNMENTS    2  2  2  2  2  2  2  2
TYPE ASSIGNMENTS      1  1  1  1  1  1  1  1  1  1  2  3  4  2  3  4  2  3  4  2
TYPE ASSIGNMENTS      3  4  5  6  7  8  9 10  5  6  7  8  9 10  1  1  1  1  1  1
TYPE ASSIGNMENTS      1  1  1  1  2  3  4  2  3  4  2  3  4  2  3  4  5  6  7  8
TYPE ASSIGNMENTS      9 10  5  6  7  8  9 10
EXPONENTS  0.1000000D-03 0.3000000D-03 0.9000000D-03 0.2700000D-02 0.8100000D-02
EXPONENTS  0.2430000D-01 0.7290000D-01 0.2187000D+00 0.6561000D+00 0.1968300D+01
EXPONENTS  0.1000000D-03 0.1000000D-03 0.1000000D-03 0.3000000D-03 0.3000000D-03
EXPONENTS  0.3000000D-03 0.9000000D-03 0.9000000D-03 0.9000000D-03 0.2700000D-02
EXPONENTS  0.2700000D-02 0.2700000D-02 0.1000000D-03 0.1000000D-03 0.1000000D-03
EXPONENTS  0.1000000D-03 0.1000000D-03 0.1000000D-03 0.3000000D-03 0.3000000D-03
EXPONENTS  0.3000000D-03 0.3000000D-03 0.3000000D-03 0.3000000D-03 0.1000000D-03
EXPONENTS  0.3000000D-03 0.9000000D-03 0.2700000D-02 0.8100000D-02 0.2430000D-01
EXPONENTS  0.7290000D-01 0.2187000D+00 0.6561000D+00 0.1968300D+01 0.1000000D-03
EXPONENTS  0.1000000D-03 0.1000000D-03 0.3000000D-03 0.3000000D-03 0.3000000D-03
EXPONENTS  0.9000000D-03 0.9000000D-03 0.9000000D-03 0.2700000D-02 0.2700000D-02
EXPONENTS  0.2700000D-02 0.1000000D-03 0.1000000D-03 0.1000000D-03 0.1000000D-03
EXPONENTS  0.1000000D-03 0.1000000D-03 0.3000000D-03 0.3000000D-03 0.3000000D-03
EXPONENTS  0.3000000D-03 0.3000000D-03 0.3000000D-03
MO    1     MO 0.0        OCC NO =    1.0000000  ORB. ENERGY =    0.001765
 -0.12924788D-03 -0.20732006D-03  0.11640705D-02  0.13576380D-02  0.33386030D-02
  0.65983884D-02  0.90330493D-02 -0.16781176D-01 -0.26599667D-02  0.10005354D-03
  0.21411259D-05  0.00000000D+00  0.00000000D+00 -0.25149973D-05 -0.00000000D+00
 -0.00000000D+00  0.18528149D-04  0.00000000D+00  0.00000000D+00  0.17594631D-03
 -0.00000000D+00 -0.00000000D+00  0.13357258D-07  0.25077576D-08  0.25077576D-08
  0.00000000D+00  0.00000000D+00  0.00000000D+00  0.59398609D-07  0.59023941D-07
  0.59023941D-07 -0.00000000D+00 -0.00000000D+00  0.00000000D+00 -0.12924788D-03
 -0.20732006D-03  0.11640705D-02  0.13576380D-02  0.33386030D-02  0.65983884D-02
  0.90330493D-02 -0.16781176D-01 -0.26599667D-02  0.10005354D-03 -0.21411259D-05
 -0.00000000D+00 -0.00000000D+00  0.25149973D-05  0.00000000D+00  0.00000000D+00
 -0.18528149D-04 -0.00000000D+00 -0.00000000D+00 -0.17594631D-03  0.00000000D+00
 -0.00000000D+00  0.13357258D-07  0.25077576D-08  0.25077576D-08  0.00000000D+00
  0.00000000D+00  0.00000000D+00  0.59398609D-07  0.59023941D-07  0.59023941D-07
 -0.00000000D+00 -0.00000000D+00 -0.00000000D+00
MO    2     MO 0.0        OCC NO =    0.0000000  ORB. ENERGY =    0.002478
 -0.15198580D-04  0.21177332D-02 -0.36465172D-05  0.31070358D-02  0.33760303D-02
  0.87347818D-02  0.10502572D-01 -0.20096641D-01 -0.34297086D-02  0.19881615D-03
  0.37587103D-06  0.00000000D+00 -0.00000000D+00  0.41814711D-04 -0.00000000D+00
  0.00000000D+00 -0.27296118D-04  0.00000000D+00  0.00000000D+00  0.22260510D-03
 -0.00000000D+00 -0.00000000D+00  0.36262707D-08  0.31471805D-08  0.31471805D-08
  0.00000000D+00 -0.00000000D+00 -0.00000000D+00  0.28318401D-06  0.58603317D-07
  0.58603317D-07 -0.00000000D+00  0.00000000D+00 -0.00000000D+00  0.15198580D-04
 -0.21177332D-02  0.36465172D-05 -0.31070358D-02 -0.33760303D-02 -0.87347818D-02
 -0.10502572D-01  0.20096641D-01  0.34297086D-02 -0.19881615D-03  0.37587103D-06
 -0.00000000D+00  0.00000000D+00  0.41814711D-04  0.00000000D+00 -0.00000000D+00
 -0.27296118D-04 -0.00000000D+00  0.00000000D+00  0.22260510D-03  0.00000000D+00
 -0.00000000D+00 -0.36262707D-08 -0.31471805D-08 -0.31471805D-08  0.00000000D+00
 -0.00000000D+00  0.00000000D+00 -0.28318401D-06 -0.58603317D-07 -0.58603317D-07
  0.00000000D+00  0.00000000D+00 -0.00000000D+00
MO    3     MO 0.0        OCC NO =    0.0000000  ORB. ENERGY =    0.006025
  0.42821802D-03  0.25620792D-03 -0.33914726D-02  0.55034656D-02  0.17895832D-02
  0.76760388D-02  0.69107856D-02 -0.14251277D-01 -0.28511292D-02  0.27408133D-03
 -0.11418942D-04  0.00000000D+00  0.00000000D+00  0.16262469D-04  0.00000000D+00
 -0.00000000D+00 -0.11544164D-03 -0.00000000D+00  0.00000000D+00  0.13631904D-03
 -0.00000000D+00 -0.00000000D+00 -0.64455819D-07 -0.43981707D-08 -0.43981707D-08
  0.00000000D+00  0.00000000D+00  0.00000000D+00 -0.21322328D-07 -0.97698867D-07
 -0.97698867D-07  0.00000000D+00 -0.00000000D+00 -0.00000000D+00  0.42821802D-03
  0.25620792D-03 -0.33914726D-02  0.55034656D-02  0.17895832D-02  0.76760388D-02
  0.69107856D-02 -0.14251277D-01 -0.28511292D-02  0.27408133D-03  0.11418942D-04
 -0.00000000D+00 -0.00000000D+00 -0.16262469D-04 -0.00000000D+00  0.00000000D+00
  0.11544164D-03  0.00000000D+00 -0.00000000D+00 -0.13631904D-03 -0.00000000D+00
  0.00000000D+00 -0.64455819D-07 -0.43981707D-08 -0.43981707D-08  0.00000000D+00
  0.00000000D+00 -0.00000000D+00 -0.21322328D-07 -0.97698867D-07 -0.97698867D-07
  0.00000000D+00 -0.00000000D+00  0.00000000D+00
MO    4     MO 0.0        OCC NO =    0.0000000  ORB. ENERGY =    0.012330
 -0.58577263D-06  0.50551945D-02 -0.32153422D-02 -0.25215514D-02  0.11584527D-01
  0.34296670D-02  0.10424129D-01 -0.16966123D-01 -0.18148882D-02 -0.19681460D-03
 -0.13994930D-05 -0.00000000D+00  0.00000000D+00  0.87881586D-04  0.00000000D+00
 -0.00000000D+00 -0.56043688D-04 -0.00000000D+00  0.00000000D+00 -0.38468733D-03
  0.00000000D+00  0.00000000D+00 -0.14029770D-07 -0.10976904D-07 -0.10976904D-07
 -0.00000000D+00  0.00000000D+00 -0.00000000D+00  0.33154932D-06 -0.14120179D-06
 -0.14120179D-06 -0.00000000D+00 -0.00000000D+00  0.00000000D+00  0.58577263D-06
 -0.50551945D-02  0.32153422D-02  0.25215514D-02 -0.11584527D-01 -0.34296670D-02
 -0.10424129D-01  0.16966123D-01  0.18148882D-02  0.19681460D-03 -0.13994930D-05
  0.00000000D+00 -0.00000000D+00  0.87881586D-04  0.00000000D+00  0.00000000D+00
 -0.56043688D-04  0.00000000D+00 -0.00000000D+00 -0.38468733D-03  0.00000000D+00
 -0.00000000D+00  0.14029770D-07  0.10976904D-07  0.10976904D-07 -0.00000000D+00
  0.00000000D+00  0.00000000D+00 -0.33154932D-06  0.14120179D-06  0.14120179D-06
 -0.00000000D+00 -0.00000000D+00 -0.00000000D+00
MO    5     MO 0.0        OCC NO =    0.0000000  ORB. ENERGY =    0.013640
 -0.00000000D+00  0.00000000D+00 -0.00000000D+00 -0.00000000D+00  0.00000000D+00
  0.00000000D+00  0.00000000D+00 -0.00000000D+00 -0.00000000D+00 -0.00000000D+00
  0.00000000D+00 -0.77345891D-06  0.81975953D-07  0.00000000D+00  0.79881433D-05
 -0.84663239D-06 -0.00000000D+00 -0.10927226D-03  0.11581342D-04 -0.00000000D+00
 -0.22373552D-03  0.23712860D-04  0.00000000D+00  0.00000000D+00 -0.00000000D+00
  0.16749631D-07 -0.17752296D-08 -0.00000000D+00  0.00000000D+00 -0.00000000D+00
 -0.00000000D+00 -0.19315494D-06  0.20471736D-07  0.00000000D+00 -0.00000000D+00
 -0.00000000D+00  0.00000000D+00 -0.00000000D+00 -0.00000000D+00 -0.00000000D+00
 -0.00000000D+00  0.00000000D+00  0.00000000D+00 -0.00000000D+00 -0.00000000D+00
 -0.77345891D-06  0.81975953D-07  0.00000000D+00  0.79881433D-05 -0.84663239D-06
 -0.00000000D+00 -0.10927226D-03  0.11581342D-04  0.00000000D+00 -0.22373552D-03
  0.23712860D-04  0.00000000D+00 -0.00000000D+00  0.00000000D+00 -0.16749631D-07
  0.17752296D-08 -0.00000000D+00 -0.00000000D+00 -0.00000000D+00 -0.00000000D+00
  0.19315494D-06 -0.20471736D-07  0.00000000D+00
MO    6     MO 0.0        OCC NO =    0.0000000  ORB. ENERGY =    0.013640
 -0.00000000D+00 -0.00000000D+00  0.00000000D+00  0.00000000D+00 -0.00000000D+00
 -0.00000000D+00 -0.00000000D+00  0.00000000D+00  0.00000000D+00  0.00000000D+00
  0.00000000D+00  0.81975953D-07  0.77345891D-06 -0.00000000D+00 -0.84663239D-06
 -0.79881433D-05  0.00000000D+00  0.11581342D-04  0.10927226D-03  0.00000000D+00
  0.23712860D-04  0.22373552D-03  0.00000000D+00 -0.00000000D+00 -0.00000000D+00
 -0.17752296D-08 -0.16749631D-07 -0.00000000D+00 -0.00000000D+00  0.00000000D+00
  0.00000000D+00  0.20471736D-07  0.19315494D-06 -0.00000000D+00 -0.00000000D+00
  0.00000000D+00 -0.00000000D+00  0.00000000D+00 -0.00000000D+00  0.00000000D+00
 -0.00000000D+00  0.00000000D+00  0.00000000D+00 -0.00000000D+00 -0.00000000D+00
  0.81975953D-07  0.77345891D-06 -0.00000000D+00 -0.84663239D-06 -0.79881433D-05
  0.00000000D+00  0.11581342D-04  0.10927226D-03 -0.00000000D+00  0.23712860D-04
  0.22373552D-03  0.00000000D+00  0.00000000D+00  0.00000000D+00  0.17752296D-08
  0.16749631D-07  0.00000000D+00  0.00000000D+00  0.00000000D+00  0.00000000D+00
 -0.20471736D-07 -0.19315494D-06 -0.00000000D+00
MO    7     MO 0.0        OCC NO =    0.0000000  ORB. ENERGY =    0.014130
  0.18291632D-03  0.59102379D-03  0.74129345D-03 -0.10845021D-01  0.16224468D-01
 -0.10471223D-02  0.10921554D-01 -0.15268802D-01 -0.52413444D-03 -0.53956431D-03
  0.77916521D-05 -0.00000000D+00  0.00000000D+00 -0.67989314D-05 -0.00000000D+00
 -0.00000000D+00  0.13253690D-03  0.00000000D+00  0.00000000D+00 -0.71313807D-03
  0.00000000D+00  0.00000000D+00  0.27435650D-07 -0.12878775D-07 -0.12878775D-07
 -0.00000000D+00  0.00000000D+00  0.00000000D+00 -0.24246354D-06 -0.28336235D-06
 -0.28336235D-06  0.00000000D+00 -0.00000000D+00 -0.00000000D+00  0.18291632D-03
  0.59102379D-03  0.74129345D-03 -0.10845021D-01  0.16224468D-01 -0.10471223D-02
  0.10921554D-01 -0.15268802D-01 -0.52413444D-03 -0.53956431D-03 -0.77916521D-05
  0.00000000D+00 -0.00000000D+00  0.67989314D-05 -0.00000000D+00  0.00000000D+00
 -0.13253690D-03  0.00000000D+00  0.00000000D+00  0.71313807D-03  0.00000000D+00
  0.00000000D+00  0.27435650D-07 -0.12878775D-07 -0.12878775D-07 -0.00000000D+00
  0.00000000D+00 -0.00000000D+00 -0.24246354D-06 -0.28336235D-06 -0.28336235D-06
  0.00000000D+00 -0.00000000D+00  0.00000000D+00
MO    8     MO 0.0        OCC NO =    0.0000000  ORB. ENERGY =    0.015982
 -0.00000000D+00 -0.00000000D+00  0.00000000D+00 -0.00000000D+00  0.00000000D+00
 -0.00000000D+00  0.00000000D+00 -0.00000000D+00  0.00000000D+00 -0.00000000D+00
 -0.00000000D+00  0.27181874D-07  0.82608836D-07 -0.00000000D+00  0.93073087D-06
  0.28285929D-05  0.00000000D+00  0.22823385D-05  0.69362819D-05 -0.00000000D+00
  0.19103519D-03  0.58057698D-03  0.00000000D+00 -0.00000000D+00 -0.00000000D+00
 -0.47797450D-09 -0.14526220D-08  0.00000000D+00 -0.00000000D+00  0.00000000D+00
  0.00000000D+00  0.26179757D-07  0.79563149D-07  0.00000000D+00 -0.00000000D+00
  0.00000000D+00 -0.00000000D+00  0.00000000D+00 -0.00000000D+00  0.00000000D+00
 -0.00000000D+00  0.00000000D+00 -0.00000000D+00  0.00000000D+00 -0.00000000D+00
 -0.27181874D-07 -0.82608836D-07 -0.00000000D+00 -0.93073087D-06 -0.28285929D-05
  0.00000000D+00 -0.22823385D-05 -0.69362819D-05 -0.00000000D+00 -0.19103519D-03
 -0.58057698D-03  0.00000000D+00  0.00000000D+00  0.00000000D+00 -0.47797450D-09
 -0.14526220D-08 -0.00000000D+00  0.00000000D+00  0.00000000D+00  0.00000000D+00
  0.26179757D-07  0.79563149D-07  0.00000000D+00
MO    9     MO 0.0        OCC NO =    0.0000000  ORB. ENERGY =    0.015982
 -0.00000000D+00  0.00000000D+00 -0.00000000D+00  0.00000000D+00 -0.00000000D+00
  0.00000000D+00 -0.00000000D+00  0.00000000D+00 -0.00000000D+00  0.00000000D+00
 -0.00000000D+00 -0.82608836D-07  0.27181874D-07  0.00000000D+00 -0.28285929D-05
  0.93073087D-06 -0.00000000D+00 -0.69362819D-05  0.22823385D-05  0.00000000D+00
 -0.58057698D-03  0.19103519D-03 -0.00000000D+00  0.00000000D+00  0.00000000D+00
  0.14526220D-08 -0.47797450D-09 -0.00000000D+00  0.00000000D+00  0.00000000D+00
  0.00000000D+00 -0.79563149D-07  0.26179757D-07  0.00000000D+00  0.00000000D+00
 -0.00000000D+00  0.00000000D+00 -0.00000000D+00  0.00000000D+00 -0.00000000D+00
  0.00000000D+00 -0.00000000D+00  0.00000000D+00 -0.00000000D+00  0.00000000D+00
  0.82608836D-07 -0.27181874D-07  0.00000000D+00  0.28285929D-05 -0.93073087D-06
 -0.00000000D+00  0.69362819D-05 -0.22823385D-05  0.00000000D+00  0.58057698D-03
 -0.19103519D-03 -0.00000000D+00 -0.00000000D+00 -0.00000000D+00  0.14526220D-08
 -0.47797450D-09  0.00000000D+00 -0.00000000D+00 -0.00000000D+00 -0.00000000D+00
 -0.79563149D-07  0.26179757D-07 -0.00000000D+00
MO   10     MO 0.0        OCC NO =    0.0000000  ORB. ENERGY =    0.018947
 -0.85545261D-04  0.21252657D-01 -0.97745771D-02  0.14361376D-01 -0.11534627D-01
  0.26413063D-02 -0.54940170D-02  0.65977300D-02 -0.30031220D-03  0.40518842D-03
 -0.60798552D-06 -0.00000000D+00 -0.00000000D+00  0.39759275D-03 -0.00000000D+00
 -0.00000000D+00 -0.35937639D-03 -0.00000000D+00 -0.00000000D+00  0.60072689D-03
  0.00000000D+00  0.00000000D+00 -0.42039156D-08 -0.48079133D-08 -0.48079133D-08
 -0.00000000D+00 -0.00000000D+00 -0.00000000D+00  0.21663171D-05  0.77566950D-07
  0.77566950D-07 -0.00000000D+00 -0.00000000D+00  0.00000000D+00  0.85545261D-04
 -0.21252657D-01  0.97745771D-02 -0.14361376D-01  0.11534627D-01 -0.26413063D-02
  0.54940170D-02 -0.65977300D-02  0.30031220D-03 -0.40518842D-03 -0.60798552D-06
  0.00000000D+00  0.00000000D+00  0.39759275D-03  0.00000000D+00  0.00000000D+00
 -0.35937639D-03 -0.00000000D+00  0.00000000D+00  0.60072689D-03  0.00000000D+00
 -0.00000000D+00  0.42039156D-08  0.48079133D-08  0.48079133D-08 -0.00000000D+00
 -0.00000000D+00  0.00000000D+00 -0.21663171D-05 -0.77566950D-07 -0.77566950D-07
 -0.00000000D+00 -0.00000000D+00 -0.00000000D+00
MO   11     MO 0.0        OCC NO =    0.0000000  ORB. ENERGY =    0.019864
  0.00000000D+00 -0.00000000D+00 -0.00000000D+00  0.00000000D+00 -0.00000000D+00
  0.00000000D+00 -0.00000000D+00  0.00000000D+00 -0.00000000D+00  0.00000000D+00
  0.00000000D+00  0.93695725D-06  0.49140016D-06 -0.00000000D+00 -0.10301875D-04
 -0.54029606D-05 -0.00000000D+00  0.17613363D-03  0.92375712D-04  0.00000000D+00
 -0.76754693D-03 -0.40255057D-03  0.00000000D+00 -0.00000000D+00 -0.00000000D+00
 -0.18196411D-07 -0.95433600D-08  0.00000000D+00 -0.00000000D+00 -0.00000000D+00
 -0.00000000D+00  0.21705974D-06  0.11383997D-06 -0.00000000D+00 -0.00000000D+00
  0.00000000D+00  0.00000000D+00 -0.00000000D+00  0.00000000D+00 -0.00000000D+00
  0.00000000D+00 -0.00000000D+00  0.00000000D+00 -0.00000000D+00 -0.00000000D+00
  0.93695725D-06  0.49140016D-06 -0.00000000D+00 -0.10301875D-04 -0.54029606D-05
 -0.00000000D+00  0.17613363D-03  0.92375712D-04  0.00000000D+00 -0.76754693D-03
 -0.40255057D-03  0.00000000D+00  0.00000000D+00  0.00000000D+00  0.18196411D-07
  0.95433600D-08 -0.00000000D+00  0.00000000D+00  0.00000000D+00  0.00000000D+00
 -0.21705974D-06 -0.11383997D-06  0.00000000D+00
MO   12     MO 0.0        OCC NO =    0.0000000  ORB. ENERGY =    0.019864
  0.00000000D+00 -0.00000000D+00 -0.00000000D+00  0.00000000D+00 -0.00000000D+00
  0.00000000D+00 -0.00000000D+00  0.00000000D+00  0.00000000D+00 -0.00000000D+00
 -0.00000000D+00  0.49140016D-06 -0.93695725D-06 -0.00000000D+00 -0.54029606D-05
  0.10301875D-04 -0.00000000D+00  0.92375712D-04 -0.17613363D-03  0.00000000D+00
 -0.40255057D-03  0.76754693D-03 -0.00000000D+00 -0.00000000D+00 -0.00000000D+00
 -0.95433600D-08  0.18196411D-07 -0.00000000D+00 -0.00000000D+00 -0.00000000D+00
 -0.00000000D+00  0.11383997D-06 -0.21705974D-06  0.00000000D+00 -0.00000000D+00
  0.00000000D+00  0.00000000D+00 -0.00000000D+00  0.00000000D+00 -0.00000000D+00
  0.00000000D+00 -0.00000000D+00  0.00000000D+00 -0.00000000D+00 -0.00000000D+00
  0.49140016D-06 -0.93695725D-06 -0.00000000D+00 -0.54029606D-05  0.10301875D-04
 -0.00000000D+00  0.92375712D-04 -0.17613363D-03  0.00000000D+00 -0.40255057D-03
  0.76754693D-03  0.00000000D+00  0.00000000D+00  0.00000000D+00  0.95433600D-08
 -0.18196411D-07  0.00000000D+00  0.00000000D+00  0.00000000D+00  0.00000000D+00
 -0.11383997D-06  0.21705974D-06 -0.00000000D+00
MO   13     MO 0.0        OCC NO =    0.0000000  ORB. ENERGY =    0.023947
 -0.33200506D-03 -0.98418738D-04  0.52200272D-03 -0.79248057D-02  0.12211232D-01
  0.94298542D-03  0.67296241D-02 -0.10209877D-01 -0.81543742D-03 -0.21559833D-03
  0.76501646D-05  0.00000000D+00  0.00000000D+00 -0.95049961D-05 -0.00000000D+00
 -0.00000000D+00  0.48722272D-04 -0.00000000D+00 -0.00000000D+00  0.25802626D-03
  0.00000000D+00  0.00000000D+00  0.45110242D-07  0.46435020D-08  0.46435020D-08
  0.00000000D+00  0.00000000D+00 -0.00000000D+00  0.36709538D-07  0.79345392D-07
  0.79345392D-07 -0.00000000D+00 -0.00000000D+00  0.00000000D+00 -0.33200506D-03
 -0.98418738D-04  0.52200272D-03 -0.79248057D-02  0.12211232D-01  0.94298542D-03
  0.67296241D-02 -0.10209877D-01 -0.81543742D-03 -0.21559833D-03 -0.76501646D-05
 -0.00000000D+00 -0.00000000D+00  0.95049961D-05  0.00000000D+00  0.00000000D+00
 -0.48722272D-04  0.00000000D+00  0.00000000D+00 -0.25802626D-03 -0.00000000D+00
 -0.00000000D+00  0.45110242D-07  0.46435020D-08  0.46435020D-08  0.00000000D+00
  0.00000000D+00  0.00000000D+00  0.36709538D-07  0.79345392D-07  0.79345392D-07
 -0.00000000D+00 -0.00000000D+00  0.00000000D+00
MO   14     MO 0.0        OCC NO =    0.0000000  ORB. ENERGY =    0.025727
  0.20022584D-04 -0.52887145D-02  0.45496595D-02 -0.13599404D-01  0.15534703D-01
  0.26074954D-03  0.76638039D-02 -0.11209362D-01 -0.71188866D-03 -0.29699842D-03
  0.28990777D-06 -0.00000000D+00  0.00000000D+00 -0.10100085D-03  0.00000000D+00
 -0.00000000D+00  0.16547602D-03 -0.00000000D+00  0.00000000D+00  0.26557246D-03
  0.00000000D+00 -0.00000000D+00  0.58335124D-09  0.36312085D-08  0.36312085D-08
 -0.00000000D+00  0.00000000D+00  0.00000000D+00 -0.53164485D-06 -0.38039385D-07
 -0.38039385D-07  0.00000000D+00 -0.00000000D+00 -0.00000000D+00 -0.20022584D-04
  0.52887145D-02 -0.45496595D-02  0.13599404D-01 -0.15534703D-01 -0.26074954D-03
 -0.76638039D-02  0.11209362D-01  0.71188866D-03  0.29699842D-03  0.28990777D-06
  0.00000000D+00 -0.00000000D+00 -0.10100085D-03 -0.00000000D+00  0.00000000D+00
  0.16547602D-03  0.00000000D+00 -0.00000000D+00  0.26557246D-03 -0.00000000D+00
  0.00000000D+00 -0.58335124D-09 -0.36312085D-08 -0.36312085D-08 -0.00000000D+00
  0.00000000D+00 -0.00000000D+00  0.53164485D-06  0.38039385D-07  0.38039385D-07
  0.00000000D+00 -0.00000000D+00  0.00000000D+00
MO   15     MO 0.0        OCC NO =    0.0000000  ORB. ENERGY =    0.025776
  0.00000000D+00  0.00000000D+00  0.00000000D+00 -0.00000000D+00  0.00000000D+00
  0.00000000D+00  0.00000000D+00 -0.00000000D+00 -0.00000000D+00 -0.00000000D+00
 -0.00000000D+00  0.77139449D-05 -0.32809423D-04  0.00000000D+00 -0.82200721D-05
  0.34962115D-04  0.00000000D+00  0.74800218D-04 -0.31814488D-03  0.00000000D+00
 -0.16644803D-03  0.70794696D-03 -0.00000000D+00  0.00000000D+00  0.00000000D+00
  0.38096308D-07 -0.16203356D-06 -0.00000000D+00  0.00000000D+00  0.00000000D+00
  0.00000000D+00 -0.21347274D-07  0.90795524D-07  0.00000000D+00  0.00000000D+00
 -0.00000000D+00 -0.00000000D+00  0.00000000D+00 -0.00000000D+00 -0.00000000D+00
 -0.00000000D+00  0.00000000D+00  0.00000000D+00  0.00000000D+00  0.00000000D+00
 -0.77139449D-05  0.32809423D-04  0.00000000D+00  0.82200721D-05 -0.34962115D-04
  0.00000000D+00 -0.74800218D-04  0.31814488D-03  0.00000000D+00  0.16644803D-03
 -0.70794696D-03 -0.00000000D+00 -0.00000000D+00 -0.00000000D+00  0.38096308D-07
 -0.16203356D-06  0.00000000D+00 -0.00000000D+00 -0.00000000D+00 -0.00000000D+00
 -0.21347274D-07  0.90795524D-07 -0.00000000D+00
MO   16     MO 0.0        OCC NO =    0.0000000  ORB. ENERGY =    0.025776
 -0.00000000D+00  0.00000000D+00 -0.00000000D+00  0.00000000D+00 -0.00000000D+00
 -0.00000000D+00 -0.00000000D+00  0.00000000D+00  0.00000000D+00 -0.00000000D+00
 -0.00000000D+00 -0.32809423D-04 -0.77139449D-05  0.00000000D+00  0.34962115D-04
  0.82200721D-05 -0.00000000D+00 -0.31814488D-03 -0.74800218D-04 -0.00000000D+00
  0.70794696D-03  0.16644803D-03 -0.00000000D+00  0.00000000D+00  0.00000000D+00
 -0.16203356D-06 -0.38096308D-07 -0.00000000D+00  0.00000000D+00  0.00000000D+00
  0.00000000D+00  0.90795524D-07  0.21347274D-07  0.00000000D+00  0.00000000D+00
 -0.00000000D+00  0.00000000D+00 -0.00000000D+00  0.00000000D+00  0.00000000D+00
  0.00000000D+00 -0.00000000D+00  0.00000000D+00 -0.00000000D+00  0.00000000D+00
  0.32809423D-04  0.77139449D-05  0.00000000D+00 -0.34962115D-04 -0.82200721D-05
 -0.00000000D+00  0.31814488D-03  0.74800218D-04 -0.00000000D+00 -0.70794696D-03
 -0.16644803D-03 -0.00000000D+00 -0.00000000D+00 -0.00000000D+00 -0.16203356D-06
 -0.38096308D-07  0.00000000D+00 -0.00000000D+00 -0.00000000D+00 -0.00000000D+00
  0.90795524D-07  0.21347274D-07 -0.00000000D+00
MO   17     MO 0.0        OCC NO =    0.0000000  ORB. ENERGY =    0.031117
  0.39280164D-02  0.34908093D-02 -0.15126470D-01  0.13277505D-01 -0.75772806D-02
 -0.20986201D-02 -0.23557969D-02  0.45400919D-02  0.83372082D-03 -0.54041703D-04
 -0.51151454D-04 -0.00000000D+00 -0.00000000D+00  0.90872491D-04  0.00000000D+00
  0.00000000D+00 -0.19933712D-03 -0.00000000D+00  0.00000000D+00  0.50715701D-03
  0.00000000D+00 -0.00000000D+00 -0.37155063D-06 -0.88301185D-07 -0.88301185D-07
 -0.00000000D+00 -0.00000000D+00  0.00000000D+00 -0.87860442D-06 -0.18031178D-05
 -0.18031178D-05  0.00000000D+00  0.00000000D+00 -0.00000000D+00  0.39280164D-02
  0.34908093D-02 -0.15126470D-01  0.13277505D-01 -0.75772806D-02 -0.20986201D-02
 -0.23557969D-02  0.45400919D-02  0.83372082D-03 -0.54041703D-04  0.51151454D-04
  0.00000000D+00  0.00000000D+00 -0.90872491D-04 -0.00000000D+00 -0.00000000D+00
  0.19933712D-03  0.00000000D+00  0.00000000D+00 -0.50715701D-03 -0.00000000D+00
 -0.00000000D+00 -0.37155063D-06 -0.88301185D-07 -0.88301185D-07 -0.00000000D+00
 -0.00000000D+00 -0.00000000D+00 -0.87860442D-06 -0.18031178D-05 -0.18031178D-05
  0.00000000D+00  0.00000000D+00  0.00000000D+00
MO   18     MO 0.0        OCC NO =    0.0000000  ORB. ENERGY =    0.032056
  0.68289218D-03  0.21183189D-02 -0.10120762D-01  0.16105740D-01 -0.13206304D-01
 -0.70796338D-03 -0.51140408D-02  0.77382244D-02  0.63192802D-03  0.16274097D-03
  0.81525176D-05 -0.00000000D+00  0.00000000D+00 -0.15649647D-05  0.00000000D+00
 -0.00000000D+00  0.16852645D-03 -0.00000000D+00  0.00000000D+00 -0.47350217D-03
  0.00000000D+00 -0.00000000D+00  0.10972136D-07 -0.30491455D-07 -0.30491455D-07
 -0.00000000D+00  0.00000000D+00  0.00000000D+00 -0.57369541D-06 -0.71145486D-06
 -0.71145486D-06  0.00000000D+00 -0.00000000D+00 -0.00000000D+00  0.68289218D-03
  0.21183189D-02 -0.10120762D-01  0.16105740D-01 -0.13206304D-01 -0.70796338D-03
 -0.51140408D-02  0.77382244D-02  0.63192802D-03  0.16274097D-03 -0.81525176D-05
  0.00000000D+00 -0.00000000D+00  0.15649647D-05 -0.00000000D+00  0.00000000D+00
 -0.16852645D-03 -0.00000000D+00 -0.00000000D+00  0.47350217D-03  0.00000000D+00
 -0.00000000D+00  0.10972136D-07 -0.30491455D-07 -0.30491455D-07 -0.00000000D+00
  0.00000000D+00 -0.00000000D+00 -0.57369541D-06 -0.71145486D-06 -0.71145486D-06
  0.00000000D+00 -0.00000000D+00  0.00000000D+00
MO   19     MO 0.0        OCC NO =    0.0000000  ORB. ENERGY =    0.032959
 -0.10520806D-03  0.18725069D-01  0.16911257D-02 -0.76645377D-02  0.77529783D-02
 -0.67834947D-03  0.31838155D-02 -0.42160452D-02 -0.62394235D-04 -0.17961790D-03
  0.14415382D-05 -0.00000000D+00 -0.00000000D+00  0.37637297D-03  0.00000000D+00
  0.00000000D+00 -0.39869404D-03 -0.00000000D+00 -0.00000000D+00  0.57820345D-03
  0.00000000D+00 -0.00000000D+00  0.15106465D-07  0.98953388D-08  0.98953388D-08
 -0.00000000D+00 -0.00000000D+00 -0.00000000D+00  0.23792735D-05  0.40426188D-06
  0.40426188D-06  0.00000000D+00  0.00000000D+00  0.00000000D+00  0.10520806D-03
 -0.18725069D-01 -0.16911257D-02  0.76645377D-02 -0.77529783D-02  0.67834947D-03
 -0.31838155D-02  0.42160452D-02  0.62394235D-04  0.17961790D-03  0.14415382D-05
  0.00000000D+00  0.00000000D+00  0.37637297D-03 -0.00000000D+00 -0.00000000D+00
 -0.39869404D-03  0.00000000D+00  0.00000000D+00  0.57820345D-03 -0.00000000D+00
  0.00000000D+00 -0.15106465D-07 -0.98953388D-08 -0.98953388D-08 -0.00000000D+00
 -0.00000000D+00  0.00000000D+00 -0.23792735D-05 -0.40426188D-06 -0.40426188D-06
  0.00000000D+00  0.00000000D+00 -0.00000000D+00
MO   20     MO 0.0        OCC NO =    0.0000000  ORB. ENERGY =    0.039532
 -0.74068351D-03 -0.88442563D-02  0.16079943D-01 -0.11941034D-01  0.50340975D-02
  0.39638719D-02  0.10233587D-02 -0.34517496D-02 -0.11429539D-02  0.20104272D-03
  0.49053300D-04  0.00000000D+00  0.00000000D+00 -0.16161872D-03 -0.00000000D+00
  0.00000000D+00 -0.79786490D-04  0.00000000D+00 -0.00000000D+00  0.87259395D-04
 -0.00000000D+00  0.00000000D+00  0.63039180D-06  0.55622350D-06  0.55622350D-06
  0.00000000D+00  0.00000000D+00  0.00000000D+00  0.29319662D-05  0.37177905D-05
  0.37177905D-05 -0.00000000D+00  0.00000000D+00 -0.00000000D+00  0.74068351D-03
  0.88442563D-02 -0.16079943D-01  0.11941034D-01 -0.50340975D-02 -0.39638719D-02
 -0.10233587D-02  0.34517496D-02  0.11429539D-02 -0.20104272D-03  0.49053300D-04
 -0.00000000D+00 -0.00000000D+00 -0.16161872D-03  0.00000000D+00 -0.00000000D+00
 -0.79786490D-04 -0.00000000D+00 -0.00000000D+00  0.87259395D-04  0.00000000D+00
  0.00000000D+00 -0.63039180D-06 -0.55622350D-06 -0.55622350D-06  0.00000000D+00
  0.00000000D+00 -0.00000000D+00 -0.29319662D-05 -0.37177905D-05 -0.37177905D-05
 -0.00000000D+00  0.00000000D+00  0.00000000D+00
MO   21     MO 0.0        OCC NO =    0.0000000  ORB. ENERGY =    0.042398
  0.00000000D+00  0.00000000D+00 -0.00000000D+00  0.00000000D+00 -0.00000000D+00
 -0.00000000D+00  0.00000000D+00  0.00000000D+00  0.00000000D+00 -0.00000000D+00
 -0.00000000D+00  0.00000000D+00 -0.00000000D+00  0.00000000D+00 -0.00000000D+00
  0.00000000D+00  0.00000000D+00  0.00000000D+00 -0.00000000D+00 -0.00000000D+00
 -0.00000000D+00  0.00000000D+00 -0.00000000D+00 -0.13382126D-08  0.13382126D-08
  0.00000000D+00 -0.00000000D+00  0.10586515D-06  0.00000000D+00  0.17213544D-07
 -0.17213544D-07 -0.00000000D+00  0.00000000D+00 -0.13617522D-05  0.00000000D+00
 -0.00000000D+00  0.00000000D+00 -0.00000000D+00  0.00000000D+00  0.00000000D+00
  0.00000000D+00 -0.00000000D+00  0.00000000D+00 -0.00000000D+00  0.00000000D+00
 -0.00000000D+00  0.00000000D+00  0.00000000D+00  0.00000000D+00 -0.00000000D+00
  0.00000000D+00 -0.00000000D+00  0.00000000D+00 -0.00000000D+00 -0.00000000D+00
 -0.00000000D+00 -0.00000000D+00 -0.13382126D-08  0.13382126D-08  0.00000000D+00
 -0.00000000D+00  0.10586515D-06 -0.00000000D+00  0.17213544D-07 -0.17213544D-07
 -0.00000000D+00  0.00000000D+00 -0.13617522D-05
MO   22     MO 0.0        OCC NO =    0.0000000  ORB. ENERGY =    0.042398
  0.00000000D+00  0.00000000D+00 -0.00000000D+00  0.00000000D+00 -0.00000000D+00
  0.00000000D+00 -0.00000000D+00 -0.00000000D+00 -0.00000000D+00  0.00000000D+00
 -0.00000000D+00 -0.00000000D+00  0.00000000D+00  0.00000000D+00  0.00000000D+00
 -0.00000000D+00 -0.00000000D+00  0.00000000D+00  0.00000000D+00  0.00000000D+00
 -0.00000000D+00 -0.00000000D+00 -0.00000000D+00  0.52932574D-07 -0.52932574D-07
 -0.00000000D+00  0.00000000D+00  0.26764257D-08  0.00000000D+00 -0.68087610D-06
  0.68087610D-06  0.00000000D+00 -0.00000000D+00 -0.34427093D-07  0.00000000D+00
 -0.00000000D+00 -0.00000000D+00  0.00000000D+00 -0.00000000D+00  0.00000000D+00
 -0.00000000D+00 -0.00000000D+00 -0.00000000D+00  0.00000000D+00  0.00000000D+00
  0.00000000D+00 -0.00000000D+00  0.00000000D+00 -0.00000000D+00  0.00000000D+00
 -0.00000000D+00  0.00000000D+00  0.00000000D+00  0.00000000D+00 -0.00000000D+00
 -0.00000000D+00 -0.00000000D+00  0.52932574D-07 -0.52932574D-07 -0.00000000D+00
  0.00000000D+00  0.26764257D-08 -0.00000000D+00 -0.68087610D-06  0.68087610D-06
  0.00000000D+00 -0.00000000D+00 -0.34427093D-07
MO   23     MO 0.0        OCC NO =    0.0000000  ORB. ENERGY =    0.042731
  0.74151822D-02 -0.32655719D-02 -0.18031386D-02 -0.34884671D-03 -0.16221312D-03
  0.14458846D-02 -0.21784180D-03 -0.39934717D-03 -0.35813429D-03  0.95162193D-04
 -0.10644002D-03 -0.00000000D+00 -0.00000000D+00  0.40490909D-04  0.00000000D+00
  0.00000000D+00 -0.41560262D-04 -0.00000000D+00 -0.00000000D+00  0.28904260D-04
 -0.00000000D+00  0.00000000D+00 -0.83863307D-06 -0.19517618D-06 -0.19517618D-06
 -0.00000000D+00 -0.00000000D+00 -0.00000000D+00 -0.90310039D-06 -0.14527289D-05
 -0.14527289D-05  0.00000000D+00  0.00000000D+00  0.00000000D+00  0.74151822D-02
 -0.32655719D-02 -0.18031386D-02 -0.34884671D-03 -0.16221312D-03  0.14458846D-02
 -0.21784180D-03 -0.39934717D-03 -0.35813429D-03  0.95162193D-04  0.10644002D-03
  0.00000000D+00  0.00000000D+00 -0.40490910D-04 -0.00000000D+00 -0.00000000D+00
  0.41560262D-04  0.00000000D+00  0.00000000D+00 -0.28904260D-04 -0.00000000D+00
 -0.00000000D+00 -0.83863307D-06 -0.19517618D-06 -0.19517618D-06 -0.00000000D+00
 -0.00000000D+00  0.00000000D+00 -0.90310039D-06 -0.14527289D-05 -0.14527289D-05
  0.00000000D+00  0.00000000D+00  0.00000000D+00
MO   24     MO 0.0        OCC NO =    0.0000000  ORB. ENERGY =    0.042871
 -0.42325443D-03  0.59034947D-01 -0.12772763D-01  0.10859289D-01 -0.22751429D-02
 -0.88406930D-02  0.46400971D-03  0.36632139D-02  0.22409761D-02 -0.53955246D-03
  0.98977916D-05 -0.00000000D+00 -0.00000000D+00  0.92050894D-03  0.00000000D+00
  0.00000000D+00  0.48102915D-04 -0.00000000D+00 -0.00000000D+00 -0.92128417D-04
  0.00000000D+00  0.00000000D+00  0.20376670D-06  0.25498914D-06  0.25498914D-06
 -0.00000000D+00 -0.00000000D+00 -0.00000000D+00  0.46817666D-05 -0.72843783D-06
 -0.72843783D-06  0.00000000D+00  0.00000000D+00  0.00000000D+00  0.42325443D-03
 -0.59034947D-01  0.12772763D-01 -0.10859289D-01  0.22751429D-02  0.88406930D-02
 -0.46400971D-03 -0.36632139D-02 -0.22409761D-02  0.53955246D-03  0.98977916D-05
  0.00000000D+00  0.00000000D+00  0.92050894D-03 -0.00000000D+00 -0.00000000D+00