[Molden Format]
[Title]
 Molden2AIM, Version 3.1.0 (02/25/2015)           Time: Thu Oct 17 19:56:17 2024

[Atoms] AU
E+       1       4     0.00000000     0.00000000     0.00000000
E+       2       4    57.20000000     0.00000000     0.00000000
[GTO]
    1 0
 S   1 1.0
    0.1000000000D-03      0.1000000000D+01
 S   1 1.0
    0.3000000000D-03      0.1000000000D+01
 S   1 1.0
    0.9000000000D-03      0.1000000000D+01
 S   1 1.0
    0.2700000000D-02      0.1000000000D+01
 S   1 1.0
    0.8100000000D-02      0.1000000000D+01
 S   1 1.0
    0.2430000000D-01      0.1000000000D+01
 S   1 1.0
    0.7290000000D-01      0.1000000000D+01
 S   1 1.0
    0.2187000000D+00      0.1000000000D+01
 S   1 1.0
    0.6561000000D+00      0.1000000000D+01
 S   1 1.0
    0.1968300000D+01      0.1000000000D+01
 P   1 1.0
    0.1000000000D-03      0.1000000000D+01
 P   1 1.0
    0.3000000000D-03      0.1000000000D+01
 P   1 1.0
    0.9000000000D-03      0.1000000000D+01
 P   1 1.0
    0.2700000000D-02      0.1000000000D+01
 D   1 1.0
    0.1000000000D-03      0.1000000000D+01
 D   1 1.0
    0.3000000000D-03      0.1000000000D+01

    2 0
 S   1 1.0
    0.1000000000D-03      0.1000000000D+01
 S   1 1.0
    0.3000000000D-03      0.1000000000D+01
 S   1 1.0
    0.9000000000D-03      0.1000000000D+01
 S   1 1.0
    0.2700000000D-02      0.1000000000D+01
 S   1 1.0
    0.8100000000D-02      0.1000000000D+01
 S   1 1.0
    0.2430000000D-01      0.1000000000D+01
 S   1 1.0
    0.7290000000D-01      0.1000000000D+01
 S   1 1.0
    0.2187000000D+00      0.1000000000D+01
 S   1 1.0
    0.6561000000D+00      0.1000000000D+01
 S   1 1.0
    0.1968300000D+01      0.1000000000D+01
 P   1 1.0
    0.1000000000D-03      0.1000000000D+01
 P   1 1.0
    0.3000000000D-03      0.1000000000D+01
 P   1 1.0
    0.9000000000D-03      0.1000000000D+01
 P   1 1.0
    0.2700000000D-02      0.1000000000D+01
 D   1 1.0
    0.1000000000D-03      0.1000000000D+01
 D   1 1.0
    0.3000000000D-03      0.1000000000D+01


[MO]
 Ene=          0.00413002
 Spin= Alpha
 Occup=        1.00000000
    1        0.4183738500
    2        0.2065255200
    3       -0.6565543500
    4        0.0926915200
    5       -0.1382606300
    6       -0.0786594500
    7       -0.0606538600
    8        0.0471130400
    9        0.0028473200
   10        0.0000064400
   11       -0.4268930300
   12        0.0000000000
   13       -0.0000000000
   14        0.1613033700
   15       -0.0000000000
   16       -0.0000000000
   17       -0.2939972900
   18        0.0000000000
   19        0.0000000000
   20       -0.1306879700
   21       -0.0000000000
   22       -0.0000000000
   23       -0.2328474500
   24       -0.0261019200
   25       -0.0261019200
   26       -0.0000000000
   27       -0.0000000000
   28        0.0000000000
   29       -0.0711821200
   30       -0.0886155700
   31       -0.0886155700
   32       -0.0000000000
   33       -0.0000000000
   34       -0.0000000000
   35        0.4183738500
   36        0.2065255200
   37       -0.6565543500
   38        0.0926915200
   39       -0.1382606300
   40       -0.0786594500
   41       -0.0606538600
   42        0.0471130400
   43        0.0028473200
   44        0.0000064400
   45        0.4268930300
   46       -0.0000000000
   47        0.0000000000
   48       -0.1613033700
   49        0.0000000000
   50        0.0000000000
   51        0.2939972900
   52       -0.0000000000
   53       -0.0000000000
   54        0.1306879700
   55        0.0000000000
   56        0.0000000000
   57       -0.2328474500
   58       -0.0261019200
   59       -0.0261019200
   60        0.0000000000
   61       -0.0000000000
   62        0.0000000000
   63       -0.0711821200
   64       -0.0886155700
   65       -0.0886155700
   66       -0.0000000000
   67       -0.0000000000
   68       -0.0000000000
 Ene=          0.00576689
 Spin= Alpha
 Occup=        0.00000000
    1        0.0198694700
    2       -0.8379583800
    3       -0.0440359200
    4       -0.4228031600
    5       -0.0996802900
    6       -0.1913725800
    7       -0.0911779900
    8        0.0785735500
    9        0.0062141000
   10       -0.0001982500
   11       -0.0371923800
   12       -0.0000000000
   13        0.0000000000
   14       -0.5691550100
   15       -0.0000000000
   16        0.0000000000
   17        0.1295003400
   18        0.0000000000
   19       -0.0000000000
   20       -0.3140028100
   21       -0.0000000000
   22        0.0000000000
   23       -0.0293458100
   24       -0.0234454800
   25       -0.0234454800
   26       -0.0000000000
   27        0.0000000000
   28        0.0000000000
   29       -0.2287158500
   30       -0.0636258400
   31       -0.0636258400
   32        0.0000000000
   33        0.0000000000
   34       -0.0000000000
   35       -0.0198694700
   36        0.8379583800
   37        0.0440359200
   38        0.4228031600
   39        0.0996802900
   40        0.1913725800
   41        0.0911779900
   42       -0.0785735500
   43       -0.0062141000
   44        0.0001982500
   45       -0.0371923800
   46        0.0000000000
   47       -0.0000000000
   48       -0.5691550100
   49       -0.0000000000
   50       -0.0000000000
   51        0.1295003400
   52        0.0000000000
   53        0.0000000000
   54       -0.3140028100
   55       -0.0000000000
   56        0.0000000000
   57        0.0293458100
   58        0.0234454800
   59        0.0234454800
   60        0.0000000000
   61        0.0000000000
   62        0.0000000000
   63        0.2287158500
   64        0.0636258400
   65        0.0636258400
   66        0.0000000000
   67       -0.0000000000
   68       -0.0000000000
 Ene=          0.00790535
 Spin= Alpha
 Occup=        0.00000000
    1       -0.4443383300
    2       -0.0956194600
    3        0.7429266400
    4       -0.7605858300
    5       -0.0614152900
    6       -0.2137706100
    7       -0.0842930200
    8        0.0764426000
    9        0.0067068300
   10       -0.0002853700
   11        0.6473694000
   12        0.0000000000
   13        0.0000000000
   14       -0.2536284100
   15        0.0000000000
   16        0.0000000000
   17        0.5214475000
   18       -0.0000000000
   19       -0.0000000000
   20       -0.2970283000
   21        0.0000000000
   22        0.0000000000
   23        0.3294233100
   24        0.0116485700
   25        0.0116485700
   26       -0.0000000000
   27        0.0000000000
   28       -0.0000000000
   29       -0.0017626200
   30        0.0382736700
   31        0.0382736700
   32        0.0000000000
   33       -0.0000000000
   34        0.0000000000
   35       -0.4443383300
   36       -0.0956194600
   37        0.7429266400
   38       -0.7605858300
   39       -0.0614152900
   40       -0.2137706100
   41       -0.0842930200
   42        0.0764426000
   43        0.0067068300
   44       -0.0002853700
   45       -0.6473694000
   46       -0.0000000000
   47       -0.0000000000
   48        0.2536284100
   49        0.0000000000
   50        0.0000000000
   51       -0.5214475000
   52       -0.0000000000
   53       -0.0000000000
   54        0.2970283000
   55        0.0000000000
   56        0.0000000000
   57        0.3294233100
   58        0.0116485700
   59        0.0116485700
   60        0.0000000000
   61       -0.0000000000
   62       -0.0000000000
   63       -0.0017626200
   64        0.0382736700
   65        0.0382736700
   66        0.0000000000
   67        0.0000000000
   68        0.0000000000
 Ene=          0.01428660
 Spin= Alpha
 Occup=        0.00000000
    1       -0.0167672100
    2       -2.5934022900
    3        0.8955037000
    4        0.1434066000
    5       -0.5676090600
    6       -0.0937959000
    7       -0.1117240100
    8        0.0809630100
    9        0.0040035700
   10        0.0001492500
   11        0.1156877600
   12       -0.0000000000
   13        0.0000000000
   14       -1.4465246000
   15        0.0000000000
   16        0.0000000000
   17        0.2914058100
   18       -0.0000000000
   19       -0.0000000000
   20        0.3673320900
   21        0.0000000000
   22        0.0000000000
   23        0.0973342500
   24        0.0759416300
   25        0.0759416300
   26        0.0000000000
   27        0.0000000000
   28        0.0000000000
   29       -0.2857029800
   30        0.1350756700
   31        0.1350756700
   32        0.0000000000
   33       -0.0000000000
   34        0.0000000000
   35        0.0167672100
   36        2.5934022900
   37       -0.8955037000
   38       -0.1434066000
   39        0.5676090600
   40        0.0937959000
   41        0.1117240100
   42       -0.0809630100
   43       -0.0040035700
   44       -0.0001492500
   45        0.1156877600
   46        0.0000000000
   47       -0.0000000000
   48       -1.4465246000
   49       -0.0000000000
   50        0.0000000000
   51        0.2914058100
   52        0.0000000000
   53       -0.0000000000
   54        0.3673320900
   55       -0.0000000000
   56        0.0000000000
   57       -0.0973342500
   58       -0.0759416300
   59       -0.0759416300
   60       -0.0000000000
   61        0.0000000000
   62       -0.0000000000
   63        0.2857029800
   64       -0.1350756700
   65       -0.1350756700
   66       -0.0000000000
   67        0.0000000000
   68       -0.0000000000
 Ene=          0.01650080
 Spin= Alpha
 Occup=        0.00000000
    1        0.0000000000
    2        0.0000000000
    3       -0.0000000000
    4        0.0000000000
    5       -0.0000000000
    6        0.0000000000
    7       -0.0000000000
    8        0.0000000000
    9       -0.0000000000
   10        0.0000000000
   11       -0.0000000000
   12       -0.0654167300
   13       -0.0087571600
   14        0.0000000000
   15        0.1642667700
   16        0.0219899600
   17       -0.0000000000
   18       -0.6008765300
   19       -0.0804377500
   20        0.0000000000
   21       -0.1346925900
   22       -0.0180309400
   23       -0.0000000000
   24        0.0000000000
   25        0.0000000000
   26        0.0812734400
   27        0.0108798600
   28        0.0000000000
   29        0.0000000000
   30        0.0000000000
   31        0.0000000000
   32       -0.1284729200
   33       -0.0171983300
   34        0.0000000000
   35        0.0000000000
   36       -0.0000000000
   37       -0.0000000000
   38        0.0000000000
   39       -0.0000000000
   40        0.0000000000
   41       -0.0000000000
   42        0.0000000000
   43       -0.0000000000
   44        0.0000000000
   45        0.0000000000
   46       -0.0654167300
   47       -0.0087571600
   48        0.0000000000
   49        0.1642667700
   50        0.0219899600
   51       -0.0000000000
   52       -0.6008765300
   53       -0.0804377500
   54        0.0000000000
   55       -0.1346925900
   56       -0.0180309400
   57       -0.0000000000
   58       -0.0000000000
   59       -0.0000000000
   60       -0.0812734400
   61       -0.0108798600
   62        0.0000000000
   63       -0.0000000000
   64       -0.0000000000
   65       -0.0000000000
   66        0.1284729200
   67        0.0171983300
   68       -0.0000000000
 Ene=          0.01650080
 Spin= Alpha
 Occup=        0.00000000
    1       -0.0000000000
    2        0.0000000000
    3        0.0000000000
    4        0.0000000000
    5       -0.0000000000
    6       -0.0000000000
    7       -0.0000000000
    8        0.0000000000
    9        0.0000000000
   10       -0.0000000000
   11        0.0000000000
   12       -0.0087571600
   13        0.0654167300
   14        0.0000000000
   15        0.0219899600
   16       -0.1642667700
   17       -0.0000000000
   18       -0.0804377500
   19        0.6008765300
   20        0.0000000000
   21       -0.0180309400
   22        0.1346925900
   23        0.0000000000
   24        0.0000000000
   25        0.0000000000
   26        0.0108798600
   27       -0.0812734400
   28       -0.0000000000
   29        0.0000000000
   30        0.0000000000
   31        0.0000000000
   32       -0.0171983300
   33        0.1284729200
   34        0.0000000000
   35       -0.0000000000
   36       -0.0000000000
   37        0.0000000000
   38        0.0000000000
   39       -0.0000000000
   40        0.0000000000
   41       -0.0000000000
   42        0.0000000000
   43        0.0000000000
   44       -0.0000000000
   45       -0.0000000000
   46       -0.0087571600
   47        0.0654167300
   48        0.0000000000
   49        0.0219899600
   50       -0.1642667700
   51        0.0000000000
   52       -0.0804377500
   53        0.6008765300
   54       -0.0000000000
   55       -0.0180309400
   56        0.1346925900
   57        0.0000000000
   58       -0.0000000000
   59       -0.0000000000
   60       -0.0108798600
   61        0.0812734400
   62        0.0000000000
   63       -0.0000000000
   64        0.0000000000
   65        0.0000000000
   66        0.0171983300
   67       -0.1284729200
   68       -0.0000000000
 Ene=          0.01681120
 Spin= Alpha
 Occup=        0.00000000
    1       -0.6119350200
    2       -0.4511081700
    3        0.1067253200
    4        1.0867400600
    5       -0.8333635000
    6       -0.0014472200
    7       -0.1175243200
    8        0.0750165800
    9        0.0017850200
   10        0.0004153800
   11       -0.2066314200
   12        0.0000000000
   13       -0.0000000000
   14        0.0068319200
   15        0.0000000000
   16        0.0000000000
   17       -0.4867453700
   18       -0.0000000000
   19       -0.0000000000
   20        0.7720321200
   21        0.0000000000
   22       -0.0000000000
   23        0.0133596200
   24        0.1046736300
   25        0.1046736300
   26        0.0000000000
   27       -0.0000000000
   28        0.0000000000
   29        0.2386084800
   30        0.3335875400
   31        0.3335875400
   32       -0.0000000000
   33       -0.0000000000
   34        0.0000000000
   35       -0.6119350200
   36       -0.4511081700
   37        0.1067253200
   38        1.0867400600
   39       -0.8333635000
   40       -0.0014472200
   41       -0.1175243200
   42        0.0750165800
   43        0.0017850200
   44        0.0004153800
   45        0.2066314200
   46       -0.0000000000
   47        0.0000000000
   48       -0.0068319200
   49        0.0000000000
   50       -0.0000000000
   51        0.4867453700
   52       -0.0000000000
   53       -0.0000000000
   54       -0.7720321200
   55        0.0000000000
   56       -0.0000000000
   57        0.0133596200
   58        0.1046736300
   59        0.1046736300
   60        0.0000000000
   61       -0.0000000000
   62       -0.0000000000
   63        0.2386084800
   64        0.3335875400
   65        0.3335875400
   66        0.0000000000
   67        0.0000000000
   68        0.0000000000
 Ene=          0.01916790
 Spin= Alpha
 Occup=        0.00000000
    1        0.0000000000
    2       -0.0000000000
    3       -0.0000000000
    4        0.0000000000
    5       -0.0000000000
    6        0.0000000000
    7       -0.0000000000
    8        0.0000000000
    9       -0.0000000000
   10        0.0000000000
   11        0.0000000000
   12        0.1438272600
   13        0.0290650700
   14       -0.0000000000
   15       -0.0031931300
   16       -0.0006452800
   17       -0.0000000000
   18        0.1206528900
   19        0.0243819200
   20        0.0000000000
   21        0.6262880100
   22        0.1265622700
   23       -0.0000000000
   24       -0.0000000000
   25       -0.0000000000
   26        0.0299523900
   27        0.0060528700
   28       -0.0000000000
   29       -0.0000000000
   30       -0.0000000000
   31       -0.0000000000
   32        0.0389605000
   33        0.0078732600
   34        0.0000000000
   35       -0.0000000000
   36        0.0000000000
   37        0.0000000000
   38       -0.0000000000
   39        0.0000000000
   40       -0.0000000000
   41        0.0000000000
   42        0.0000000000
   43       -0.0000000000
   44        0.0000000000
   45       -0.0000000000
   46       -0.1438272600
   47       -0.0290650700
   48       -0.0000000000
   49        0.0031931300
   50        0.0006452800
   51       -0.0000000000
   52       -0.1206528900
   53       -0.0243819200
   54        0.0000000000
   55       -0.6262880100
   56       -0.1265622700
   57        0.0000000000
   58        0.0000000000
   59        0.0000000000
   60        0.0299523900
   61        0.0060528700
   62        0.0000000000
   63        0.0000000000
   64        0.0000000000
   65        0.0000000000
   66        0.0389605000
   67        0.0078732600
   68       -0.0000000000
 Ene=          0.01916790
 Spin= Alpha
 Occup=        0.00000000
    1        0.0000000000
    2       -0.0000000000
    3        0.0000000000
    4       -0.0000000000
    5        0.0000000000
    6       -0.0000000000
    7        0.0000000000
    8       -0.0000000000
    9       -0.0000000000
   10        0.0000000000
   11       -0.0000000000
   12       -0.0290650700
   13        0.1438272600
   14       -0.0000000000
   15        0.0006452800
   16       -0.0031931300
   17        0.0000000000
   18       -0.0243819200
   19        0.1206528900
   20       -0.0000000000
   21       -0.1265622700
   22        0.6262880100
   23       -0.0000000000
   24       -0.0000000000
   25       -0.0000000000
   26       -0.0060528700
   27        0.0299523900
   28       -0.0000000000
   29       -0.0000000000
   30       -0.0000000000
   31       -0.0000000000
   32       -0.0078732600
   33        0.0389605000
   34        0.0000000000
   35        0.0000000000
   36        0.0000000000
   37       -0.0000000000
   38        0.0000000000
   39       -0.0000000000
   40        0.0000000000
   41       -0.0000000000
   42        0.0000000000
   43       -0.0000000000
   44        0.0000000000
   45        0.0000000000
   46        0.0290650700
   47       -0.1438272600
   48       -0.0000000000
   49       -0.0006452800
   50        0.0031931300
   51        0.0000000000
   52        0.0243819200
   53       -0.1206528900
   54       -0.0000000000
   55        0.1265622700
   56       -0.6262880100
   57       -0.0000000000
   58        0.0000000000
   59        0.0000000000
   60       -0.0060528700
   61        0.0299523900
   62        0.0000000000
   63        0.0000000000
   64        0.0000000000
   65        0.0000000000
   66       -0.0078732600
   67        0.0389605000
   68       -0.0000000000
 Ene=          0.02070970
 Spin= Alpha
 Occup=        0.00000000
    1        0.0557736800
    2       -8.2279738700
    3        2.3845724200
    4       -1.7695869000
    5        0.6865592100
    6       -0.0713765100
    7        0.0679263500
    8       -0.0360845400
    9        0.0006672400
   10       -0.0004182900
   11        0.0520924600
   12       -0.0000000000
   13        0.0000000000
   14       -5.0325970800
   15        0.0000000000
   16       -0.0000000000
   17        1.5359580900
   18       -0.0000000000
   19       -0.0000000000
   20       -0.7123000800
   21        0.0000000000
   22        0.0000000000
   23        0.0331156400
   24        0.0460800000
   25        0.0460800000
   26       -0.0000000000
   27        0.0000000000
   28        0.0000000000
   29       -1.4631239600
   30       -0.0496957800
   31       -0.0496957800
   32        0.0000000000
   33       -0.0000000000
   34       -0.0000000000
   35       -0.0557736800
   36        8.2279738700
   37       -2.3845724200
   38        1.7695869000
   39       -0.6865592100
   40        0.0713765100
   41       -0.0679263500
   42        0.0360845400
   43       -0.0006672400
   44        0.0004182900
   45        0.0520924600
   46        0.0000000000
   47       -0.0000000000
   48       -5.0325970800
   49       -0.0000000000
   50        0.0000000000
   51        1.5359580900
   52        0.0000000000
   53       -0.0000000000
   54       -0.7123000800
   55       -0.0000000000
   56        0.0000000000
   57       -0.0331156400
   58       -0.0460800000
   59       -0.0460800000
   60       -0.0000000000
   61        0.0000000000
   62       -0.0000000000
   63        1.4631239600
   64        0.0496957800
   65        0.0496957800
   66        0.0000000000
   67       -0.0000000000
   68       -0.0000000000
 Ene=          0.02253210
 Spin= Alpha
 Occup=        0.00000000
    1       -0.0000000000
    2       -0.0000000000
    3       -0.0000000000
    4        0.0000000000
    5       -0.0000000000
    6        0.0000000000
    7       -0.0000000000
    8        0.0000000000
    9       -0.0000000000
   10        0.0000000000
   11        0.0000000000
   12       -0.0097828000
   13       -0.0662873000
   14       -0.0000000000
   15        0.0256539300
   16        0.1738285800
   17        0.0000000000
   18       -0.1183696400
   19       -0.8020614400
   20        0.0000000000
   21        0.1458244300
   22        0.9880925000
   23        0.0000000000
   24       -0.0000000000
   25       -0.0000000000
   26        0.0117538900
   27        0.0796432100
   28        0.0000000000
   29       -0.0000000000
   30       -0.0000000000
   31       -0.0000000000
   32       -0.0186957800
   33       -0.1266808200
   34       -0.0000000000
   35       -0.0000000000
   36        0.0000000000
   37        0.0000000000
   38       -0.0000000000
   39        0.0000000000
   40       -0.0000000000
   41        0.0000000000
   42       -0.0000000000
   43       -0.0000000000
   44        0.0000000000
   45       -0.0000000000
   46       -0.0097828000
   47       -0.0662873000
   48       -0.0000000000
   49        0.0256539300
   50        0.1738285800
   51       -0.0000000000
   52       -0.1183696400
   53       -0.8020614400
   54        0.0000000000
   55        0.1458244300
   56        0.9880925000
   57        0.0000000000
   58        0.0000000000
   59        0.0000000000
   60       -0.0117538900
   61       -0.0796432100
   62       -0.0000000000
   63        0.0000000000
   64        0.0000000000
   65        0.0000000000
   66        0.0186957800
   67        0.1266808200
   68        0.0000000000
 Ene=          0.02253210
 Spin= Alpha
 Occup=        0.00000000
    1        0.0000000000
    2        0.0000000000
    3        0.0000000000
    4       -0.0000000000
    5        0.0000000000
    6       -0.0000000000
    7        0.0000000000
    8       -0.0000000000
    9        0.0000000000
   10       -0.0000000000
   11       -0.0000000000
   12       -0.0662873000
   13        0.0097828000
   14        0.0000000000
   15        0.1738285800
   16       -0.0256539300
   17       -0.0000000000
   18       -0.8020614400
   19        0.1183696400
   20       -0.0000000000
   21        0.9880925000
   22       -0.1458244300
   23       -0.0000000000
   24        0.0000000000
   25        0.0000000000
   26        0.0796432100
   27       -0.0117538900
   28        0.0000000000
   29        0.0000000000
   30        0.0000000000
   31        0.0000000000
   32       -0.1266808200
   33        0.0186957800
   34       -0.0000000000
   35        0.0000000000
   36       -0.0000000000
   37       -0.0000000000
   38        0.0000000000
   39       -0.0000000000
   40        0.0000000000
   41       -0.0000000000
   42        0.0000000000
   43       -0.0000000000
   44        0.0000000000
   45        0.0000000000
   46       -0.0662873000
   47        0.0097828000
   48        0.0000000000
   49        0.1738285800
   50       -0.0256539300
   51        0.0000000000
   52       -0.8020614400
   53        0.1183696400
   54       -0.0000000000
   55        0.9880925000
   56       -0.1458244300
   57       -0.0000000000
   58       -0.0000000000
   59       -0.0000000000
   60       -0.0796432100
   61        0.0117538900
   62       -0.0000000000
   63       -0.0000000000
   64       -0.0000000000
   65       -0.0000000000
   66        0.1266808200
   67       -0.0186957800
   68       -0.0000000000
 Ene=          0.02696130
 Spin= Alpha
 Occup=        0.00000000
    1        0.7309351400
    2        0.1023744200
    3       -0.1215685200
    4        0.7801061600
    5       -0.5720632600
    6       -0.0193660300
    7       -0.0628648200
    8        0.0418577200
    9        0.0014692100
   10        0.0001690800
   11       -0.7277943800
   12        0.0000000000
   13       -0.0000000000
   14        0.2795271900
   15       -0.0000000000
   16        0.0000000000
   17       -0.3277445200
   18        0.0000000000
   19       -0.0000000000
   20       -0.2278814600
   21       -0.0000000000
   22        0.0000000000
   23       -0.4139074900
   24       -0.0470638600
   25       -0.0470638600
   26        0.0000000000
   27       -0.0000000000
   28        0.0000000000
   29       -0.0445537600
   30       -0.1248603200
   31       -0.1248603200
   32       -0.0000000000
   33       -0.0000000000
   34        0.0000000000
   35        0.7309351400
   36        0.1023744200
   37       -0.1215685200
   38        0.7801061600
   39       -0.5720632600
   40       -0.0193660300
   41       -0.0628648200
   42        0.0418577200
   43        0.0014692100
   44        0.0001690800
   45        0.7277943800
   46       -0.0000000000
   47        0.0000000000
   48       -0.2795271900
   49        0.0000000000
   50        0.0000000000
   51        0.3277445200
   52       -0.0000000000
   53       -0.0000000000
   54        0.2278814600
   55        0.0000000000
   56        0.0000000000
   57       -0.4139074900
   58       -0.0470638600
   59       -0.0470638600
   60        0.0000000000
   61       -0.0000000000
   62       -0.0000000000
   63       -0.0445537600
   64       -0.1248603200
   65       -0.1248603200
   66       -0.0000000000
   67        0.0000000000
   68       -0.0000000000
 Ene=          0.02763770
 Spin= Alpha
 Occup=        0.00000000
    1        0.0000000000
    2        0.0000000000
    3        0.0000000000
    4       -0.0000000000
    5        0.0000000000
    6        0.0000000000
    7        0.0000000000
    8       -0.0000000000
    9        0.0000000000
   10       -0.0000000000
   11       -0.0000000000
   12        1.5176323900
   13        0.7429115900
   14        0.0000000000
   15       -0.4597452700
   16       -0.2250545600
   17       -0.0000000000
   18        1.2661948900
   19        0.6198278800
   20       -0.0000000000
   21       -0.7821161500
   22       -0.3828615900
   23       -0.0000000000
   24        0.0000000000
   25        0.0000000000
   26        0.3950775800
   27        0.1933984200
   28       -0.0000000000
   29        0.0000000000
   30        0.0000000000
   31        0.0000000000
   32       -0.0036057700
   33       -0.0017651000
   34        0.0000000000
   35       -0.0000000000
   36       -0.0000000000
   37        0.0000000000
   38       -0.0000000000
   39        0.0000000000
   40        0.0000000000
   41        0.0000000000
   42       -0.0000000000
   43       -0.0000000000
   44       -0.0000000000
   45        0.0000000000
   46       -1.5176323900
   47       -0.7429115900
   48        0.0000000000
   49        0.4597452700
   50        0.2250545600
   51       -0.0000000000
   52       -1.2661948900
   53       -0.6198278800
   54        0.0000000000
   55        0.7821161500
   56        0.3828615900
   57       -0.0000000000
   58       -0.0000000000
   59       -0.0000000000
   60        0.3950775800
   61        0.1933984200
   62       -0.0000000000
   63       -0.0000000000
   64        0.0000000000
   65        0.0000000000
   66       -0.0036057700
   67       -0.0017651000
   68        0.0000000000
 Ene=          0.02763770
 Spin= Alpha
 Occup=        0.00000000
    1        0.0000000000
    2        0.0000000000
    3        0.0000000000
    4       -0.0000000000
    5        0.0000000000
    6        0.0000000000
    7        0.0000000000
    8       -0.0000000000
    9        0.0000000000
   10       -0.0000000000
   11        0.0000000000
   12        0.7429115900
   13       -1.5176323900
   14        0.0000000000
   15       -0.2250545600
   16        0.4597452700
   17       -0.0000000000
   18        0.6198278800
   19       -1.2661948900
   20        0.0000000000
   21       -0.3828615900
   22        0.7821161500
   23        0.0000000000
   24        0.0000000000
   25        0.0000000000
   26        0.1933984200
   27       -0.3950775800
   28       -0.0000000000
   29        0.0000000000
   30        0.0000000000
   31        0.0000000000
   32       -0.0017651000
   33        0.0036057700
   34       -0.0000000000
   35       -0.0000000000
   36       -0.0000000000
   37        0.0000000000
   38       -0.0000000000
   39        0.0000000000
   40        0.0000000000
   41        0.0000000000
   42       -0.0000000000
   43       -0.0000000000
   44       -0.0000000000
   45        0.0000000000
   46       -0.7429115900
   47        1.5176323900
   48        0.0000000000
   49        0.2250545600
   50       -0.4597452700
   51       -0.0000000000
   52       -0.6198278800
   53        1.2661948900
   54        0.0000000000
   55        0.3828615900
   56       -0.7821161500
   57       -0.0000000000
   58       -0.0000000000
   59       -0.0000000000
   60        0.1933984200
   61       -0.3950775800
   62        0.0000000000
   63       -0.0000000000
   64       -0.0000000000
   65       -0.0000000000
   66       -0.0017651000
   67        0.0036057700
   68        0.0000000000
 Ene=          0.02858750
 Spin= Alpha
 Occup=        0.00000000
    1       -0.0230643900
    2        1.9638373800
    3       -0.7140083200
    4        1.3489388600
    5       -0.7471849900
    6       -0.0028591400
    7       -0.0740138300
    8        0.0472848400
    9        0.0012688900
   10        0.0002472100
   11        0.0123409600
   12        0.0000000000
   13       -0.0000000000
   14        1.3160989800
   15       -0.0000000000
   16        0.0000000000