 Molden2AIM, Version 3.1.0 (02/25/2015)           Time: Thu Oct 17 19:54:53 2024
GAUSSIAN             68 MOL ORBITALS     68 PRIMITIVES        2 NUCLEI
  Be   1    (CENTRE  1)   0.00000000  0.00000000  0.00000000  CHARGE =  4.0
  Be   2    (CENTRE  2)  38.80000000  0.00000000  0.00000000  CHARGE =  4.0
CENTRE ASSIGNMENTS    1  1  1  1  1  1  1  1  1  1  1  1  1  1  1  1  1  1  1  1
CENTRE ASSIGNMENTS    1  1  1  1  1  1  1  1  1  1  1  1  1  1  2  2  2  2  2  2
CENTRE ASSIGNMENTS    2  2  2  2  2  2  2  2  2  2  2  2  2  2  2  2  2  2  2  2
CENTRE ASSIGNMENTS    2  2  2  2  2  2  2  2
TYPE ASSIGNMENTS      1  1  1  1  1  1  1  1  1  1  2  3  4  2  3  4  2  3  4  2
TYPE ASSIGNMENTS      3  4  5  6  7  8  9 10  5  6  7  8  9 10  1  1  1  1  1  1
TYPE ASSIGNMENTS      1  1  1  1  2  3  4  2  3  4  2  3  4  2  3  4  5  6  7  8
TYPE ASSIGNMENTS      9 10  5  6  7  8  9 10
EXPONENTS  0.1000000D-03 0.3000000D-03 0.9000000D-03 0.2700000D-02 0.8100000D-02
EXPONENTS  0.2430000D-01 0.7290000D-01 0.2187000D+00 0.6561000D+00 0.1968300D+01
EXPONENTS  0.1000000D-03 0.1000000D-03 0.1000000D-03 0.3000000D-03 0.3000000D-03
EXPONENTS  0.3000000D-03 0.9000000D-03 0.9000000D-03 0.9000000D-03 0.2700000D-02
EXPONENTS  0.2700000D-02 0.2700000D-02 0.1000000D-03 0.1000000D-03 0.1000000D-03
EXPONENTS  0.1000000D-03 0.1000000D-03 0.1000000D-03 0.3000000D-03 0.3000000D-03
EXPONENTS  0.3000000D-03 0.3000000D-03 0.3000000D-03 0.3000000D-03 0.1000000D-03
EXPONENTS  0.3000000D-03 0.9000000D-03 0.2700000D-02 0.8100000D-02 0.2430000D-01
EXPONENTS  0.7290000D-01 0.2187000D+00 0.6561000D+00 0.1968300D+01 0.1000000D-03
EXPONENTS  0.1000000D-03 0.1000000D-03 0.3000000D-03 0.3000000D-03 0.3000000D-03
EXPONENTS  0.9000000D-03 0.9000000D-03 0.9000000D-03 0.2700000D-02 0.2700000D-02
EXPONENTS  0.2700000D-02 0.1000000D-03 0.1000000D-03 0.1000000D-03 0.1000000D-03
EXPONENTS  0.1000000D-03 0.1000000D-03 0.3000000D-03 0.3000000D-03 0.3000000D-03
EXPONENTS  0.3000000D-03 0.3000000D-03 0.3000000D-03
MO    1     MO 0.0        OCC NO =    1.0000000  ORB. ENERGY =   -0.003798
  0.23575035D-04 -0.34430365D-04 -0.60032326D-04 -0.16487382D-02 -0.58069880D-02
 -0.86916882D-02 -0.12273742D-01  0.22606522D-01  0.35257497D-02 -0.11271420D-03
 -0.14590494D-05  0.00000000D+00 -0.00000000D+00  0.18361888D-05  0.00000000D+00
  0.00000000D+00 -0.64879410D-05  0.00000000D+00 -0.00000000D+00 -0.28267433D-04
 -0.00000000D+00  0.00000000D+00 -0.56233808D-08  0.16508935D-09  0.16508935D-09
  0.00000000D+00 -0.00000000D+00 -0.00000000D+00  0.19317928D-07  0.42910020D-08
  0.42910020D-08  0.00000000D+00 -0.00000000D+00  0.00000000D+00  0.23575035D-04
 -0.34430365D-04 -0.60032326D-04 -0.16487382D-02 -0.58069880D-02 -0.86916882D-02
 -0.12273742D-01  0.22606522D-01  0.35257497D-02 -0.11271420D-03  0.14590494D-05
 -0.00000000D+00  0.00000000D+00 -0.18361888D-05 -0.00000000D+00 -0.00000000D+00
  0.64879410D-05 -0.00000000D+00  0.00000000D+00  0.28267433D-04  0.00000000D+00
 -0.00000000D+00 -0.56233808D-08  0.16508935D-09  0.16508935D-09 -0.00000000D+00
 -0.00000000D+00  0.00000000D+00  0.19317928D-07  0.42910020D-08  0.42910020D-08
  0.00000000D+00  0.00000000D+00 -0.00000000D+00
MO    2     MO 0.0        OCC NO =    0.0000000  ORB. ENERGY =   -0.003505
  0.20308542D-06  0.32000734D-05  0.37118069D-04  0.22037397D-02  0.55289596D-02
  0.94915283D-02  0.12418559D-01 -0.23255317D-01 -0.37855932D-02  0.16739545D-03
 -0.17131872D-07  0.00000000D+00  0.00000000D+00 -0.27115828D-06 -0.00000000D+00
 -0.00000000D+00  0.35340176D-05  0.00000000D+00 -0.00000000D+00  0.55206126D-04
 -0.00000000D+00  0.00000000D+00 -0.39553829D-09 -0.12568266D-10 -0.12568266D-10
  0.00000000D+00  0.00000000D+00  0.00000000D+00 -0.43466951D-08 -0.71366175D-08
 -0.71366175D-08 -0.00000000D+00 -0.00000000D+00 -0.00000000D+00 -0.20308542D-06
 -0.32000734D-05 -0.37118069D-04 -0.22037397D-02 -0.55289596D-02 -0.94915283D-02
 -0.12418559D-01  0.23255317D-01  0.37855932D-02 -0.16739545D-03 -0.17131872D-07
 -0.00000000D+00 -0.00000000D+00 -0.27115828D-06  0.00000000D+00  0.00000000D+00
  0.35340176D-05 -0.00000000D+00  0.00000000D+00  0.55206126D-04 -0.00000000D+00
 -0.00000000D+00  0.39553829D-09  0.12568266D-10  0.12568266D-10  0.00000000D+00
  0.00000000D+00  0.00000000D+00  0.43466951D-08  0.71366175D-08  0.71366175D-08
 -0.00000000D+00 -0.00000000D+00 -0.00000000D+00
MO    3     MO 0.0        OCC NO =    0.0000000  ORB. ENERGY =    0.004253
  0.47046792D-03  0.13800293D-03 -0.37091681D-02  0.53207123D-02  0.12500222D-02
  0.50189886D-02  0.38018605D-02 -0.82013320D-02 -0.17776980D-02  0.19829503D-03
 -0.17576837D-04  0.00000000D+00  0.00000000D+00  0.21851778D-04 -0.00000000D+00
 -0.00000000D+00 -0.10389306D-03  0.00000000D+00 -0.00000000D+00  0.37809480D-04
 -0.00000000D+00  0.00000000D+00 -0.73353325D-07 -0.43377686D-08 -0.43377686D-08
  0.00000000D+00  0.00000000D+00 -0.00000000D+00  0.59229470D-07 -0.10079385D-06
 -0.10079385D-06 -0.00000000D+00 -0.00000000D+00  0.00000000D+00  0.47046792D-03
  0.13800293D-03 -0.37091681D-02  0.53207123D-02  0.12500222D-02  0.50189886D-02
  0.38018605D-02 -0.82013320D-02 -0.17776980D-02  0.19829503D-03  0.17576837D-04
 -0.00000000D+00 -0.00000000D+00 -0.21851778D-04  0.00000000D+00  0.00000000D+00
  0.10389306D-03 -0.00000000D+00  0.00000000D+00 -0.37809480D-04  0.00000000D+00
 -0.00000000D+00 -0.73353325D-07 -0.43377686D-08 -0.43377686D-08  0.00000000D+00
  0.00000000D+00  0.00000000D+00  0.59229470D-07 -0.10079385D-06 -0.10079385D-06
 -0.00000000D+00 -0.00000000D+00 -0.00000000D+00
MO    4     MO 0.0        OCC NO =    0.0000000  ORB. ENERGY =    0.006661
 -0.00000000D+00 -0.00000000D+00 -0.00000000D+00 -0.00000000D+00  0.00000000D+00
  0.00000000D+00 -0.00000000D+00 -0.00000000D+00 -0.00000000D+00  0.00000000D+00
  0.00000000D+00  0.37479855D-06 -0.14885452D-06 -0.00000000D+00 -0.44548993D-05
  0.17693019D-05 -0.00000000D+00  0.60090895D-04 -0.23865621D-04 -0.00000000D+00
  0.34101832D-03 -0.13543838D-03  0.00000000D+00 -0.00000000D+00 -0.00000000D+00
 -0.35501085D-08  0.14099566D-08  0.00000000D+00 -0.00000000D+00 -0.00000000D+00
 -0.00000000D+00  0.70591714D-07 -0.28036109D-07 -0.00000000D+00 -0.00000000D+00
 -0.00000000D+00  0.00000000D+00 -0.00000000D+00 -0.00000000D+00 -0.00000000D+00
  0.00000000D+00 -0.00000000D+00  0.00000000D+00 -0.00000000D+00 -0.00000000D+00
  0.37479855D-06 -0.14885452D-06  0.00000000D+00 -0.44548993D-05  0.17693019D-05
 -0.00000000D+00  0.60090895D-04 -0.23865621D-04  0.00000000D+00  0.34101832D-03
 -0.13543838D-03  0.00000000D+00  0.00000000D+00  0.00000000D+00  0.35501085D-08
 -0.14099566D-08 -0.00000000D+00  0.00000000D+00  0.00000000D+00  0.00000000D+00
 -0.70591714D-07  0.28036109D-07  0.00000000D+00
MO    5     MO 0.0        OCC NO =    0.0000000  ORB. ENERGY =    0.006661
  0.00000000D+00  0.00000000D+00  0.00000000D+00 -0.00000000D+00 -0.00000000D+00
 -0.00000000D+00  0.00000000D+00 -0.00000000D+00 -0.00000000D+00  0.00000000D+00
  0.00000000D+00  0.14885452D-06  0.37479855D-06 -0.00000000D+00 -0.17693019D-05
 -0.44548993D-05  0.00000000D+00  0.23865621D-04  0.60090895D-04 -0.00000000D+00
  0.13543838D-03  0.34101832D-03  0.00000000D+00  0.00000000D+00  0.00000000D+00
 -0.14099566D-08 -0.35501085D-08  0.00000000D+00  0.00000000D+00  0.00000000D+00
  0.00000000D+00  0.28036109D-07  0.70591714D-07 -0.00000000D+00  0.00000000D+00
  0.00000000D+00 -0.00000000D+00 -0.00000000D+00  0.00000000D+00  0.00000000D+00
 -0.00000000D+00  0.00000000D+00 -0.00000000D+00  0.00000000D+00 -0.00000000D+00
  0.14885452D-06  0.37479855D-06  0.00000000D+00 -0.17693019D-05 -0.44548993D-05
  0.00000000D+00  0.23865621D-04  0.60090895D-04  0.00000000D+00  0.13543838D-03
  0.34101832D-03 -0.00000000D+00 -0.00000000D+00 -0.00000000D+00  0.14099566D-08
  0.35501085D-08  0.00000000D+00 -0.00000000D+00 -0.00000000D+00 -0.00000000D+00
 -0.28036109D-07 -0.70591714D-07 -0.00000000D+00
MO    6     MO 0.0        OCC NO =    0.0000000  ORB. ENERGY =    0.008992
  0.00000000D+00 -0.00000000D+00  0.00000000D+00 -0.00000000D+00  0.00000000D+00
  0.00000000D+00 -0.00000000D+00 -0.00000000D+00 -0.00000000D+00  0.00000000D+00
  0.00000000D+00 -0.62121561D-06  0.11666032D-05 -0.00000000D+00 -0.13393637D-05
  0.25152393D-05  0.00000000D+00 -0.42199832D-05  0.79248590D-05  0.00000000D+00
 -0.30467926D-03  0.57216819D-03  0.00000000D+00  0.00000000D+00  0.00000000D+00
 -0.20154826D-08  0.37849450D-08 -0.00000000D+00  0.00000000D+00  0.00000000D+00
  0.00000000D+00 -0.24792951D-07  0.46559591D-07  0.00000000D+00 -0.00000000D+00
  0.00000000D+00 -0.00000000D+00  0.00000000D+00 -0.00000000D+00  0.00000000D+00
 -0.00000000D+00 -0.00000000D+00  0.00000000D+00 -0.00000000D+00 -0.00000000D+00
  0.62121561D-06 -0.11666032D-05 -0.00000000D+00  0.13393637D-05 -0.25152393D-05
  0.00000000D+00  0.42199832D-05 -0.79248590D-05 -0.00000000D+00  0.30467926D-03
 -0.57216819D-03  0.00000000D+00 -0.00000000D+00 -0.00000000D+00 -0.20154826D-08
  0.37849450D-08  0.00000000D+00  0.00000000D+00 -0.00000000D+00  0.00000000D+00
 -0.24792951D-07  0.46559591D-07 -0.00000000D+00
MO    7     MO 0.0        OCC NO =    0.0000000  ORB. ENERGY =    0.008992
  0.00000000D+00 -0.00000000D+00  0.00000000D+00 -0.00000000D+00  0.00000000D+00
 -0.00000000D+00 -0.00000000D+00  0.00000000D+00 -0.00000000D+00  0.00000000D+00
 -0.00000000D+00 -0.11666032D-05 -0.62121561D-06 -0.00000000D+00 -0.25152393D-05
 -0.13393637D-05  0.00000000D+00 -0.79248590D-05 -0.42199832D-05 -0.00000000D+00
 -0.57216819D-03 -0.30467926D-03 -0.00000000D+00 -0.00000000D+00 -0.00000000D+00
 -0.37849450D-08 -0.20154826D-08 -0.00000000D+00 -0.00000000D+00 -0.00000000D+00
 -0.00000000D+00 -0.46559591D-07 -0.24792951D-07  0.00000000D+00 -0.00000000D+00
  0.00000000D+00  0.00000000D+00 -0.00000000D+00  0.00000000D+00 -0.00000000D+00
  0.00000000D+00 -0.00000000D+00 -0.00000000D+00  0.00000000D+00  0.00000000D+00
  0.11666032D-05  0.62121561D-06 -0.00000000D+00  0.25152393D-05  0.13393637D-05
 -0.00000000D+00  0.79248590D-05  0.42199832D-05  0.00000000D+00  0.57216819D-03
  0.30467926D-03 -0.00000000D+00  0.00000000D+00  0.00000000D+00 -0.37849450D-08
 -0.20154826D-08  0.00000000D+00  0.00000000D+00  0.00000000D+00  0.00000000D+00
 -0.46559591D-07 -0.24792951D-07 -0.00000000D+00
MO    8     MO 0.0        OCC NO =    0.0000000  ORB. ENERGY =    0.009643
 -0.21968462D-04 -0.42003664D-05  0.84924962D-02  0.17438875D-02 -0.10960648D-01
 -0.10712426D-02 -0.81230911D-02  0.12281640D-01  0.91390487D-03  0.27630790D-03
  0.20532539D-05 -0.00000000D+00 -0.00000000D+00 -0.95362830D-06  0.00000000D+00
  0.00000000D+00  0.19540259D-03  0.00000000D+00 -0.00000000D+00  0.32263943D-03
  0.00000000D+00  0.00000000D+00  0.17963208D-07  0.29169388D-07  0.29169388D-07
 -0.00000000D+00 -0.00000000D+00 -0.00000000D+00  0.29632857D-06  0.14753435D-06
  0.14753435D-06  0.00000000D+00  0.00000000D+00  0.00000000D+00  0.21968462D-04
  0.42003664D-05 -0.84924962D-02 -0.17438875D-02  0.10960648D-01  0.10712426D-02
  0.81230911D-02 -0.12281640D-01 -0.91390487D-03 -0.27630790D-03  0.20532539D-05
  0.00000000D+00  0.00000000D+00 -0.95362830D-06 -0.00000000D+00 -0.00000000D+00
  0.19540259D-03  0.00000000D+00  0.00000000D+00  0.32263943D-03 -0.00000000D+00
 -0.00000000D+00 -0.17963208D-07 -0.29169388D-07 -0.29169388D-07 -0.00000000D+00
 -0.00000000D+00 -0.00000000D+00 -0.29632857D-06 -0.14753435D-06 -0.14753435D-06
  0.00000000D+00  0.00000000D+00  0.00000000D+00
MO    9     MO 0.0        OCC NO =    0.0000000  ORB. ENERGY =    0.009936
  0.27944442D-03 -0.45202131D-03 -0.19378819D-02  0.97112819D-02 -0.11438058D-01
  0.23256983D-02 -0.67617738D-02  0.85295476D-02 -0.16871227D-03  0.45260963D-03
 -0.20512278D-04 -0.00000000D+00 -0.00000000D+00  0.22038309D-04  0.00000000D+00
  0.00000000D+00 -0.12566558D-03 -0.00000000D+00 -0.00000000D+00  0.64763117D-03
 -0.00000000D+00  0.00000000D+00 -0.76954942D-07  0.40368593D-08  0.40368593D-08
 -0.00000000D+00 -0.00000000D+00  0.00000000D+00  0.25000372D-06  0.95129815D-07
  0.95129815D-07  0.00000000D+00  0.00000000D+00 -0.00000000D+00  0.27944442D-03
 -0.45202131D-03 -0.19378819D-02  0.97112819D-02 -0.11438058D-01  0.23256983D-02
 -0.67617738D-02  0.85295476D-02 -0.16871227D-03  0.45260963D-03  0.20512278D-04
  0.00000000D+00  0.00000000D+00 -0.22038309D-04 -0.00000000D+00 -0.00000000D+00
  0.12566558D-03  0.00000000D+00  0.00000000D+00 -0.64763117D-03  0.00000000D+00
 -0.00000000D+00 -0.76954942D-07  0.40368593D-08  0.40368593D-08 -0.00000000D+00
 -0.00000000D+00 -0.00000000D+00  0.25000372D-06  0.95129815D-07  0.95129815D-07
  0.00000000D+00  0.00000000D+00  0.00000000D+00
MO   10     MO 0.0        OCC NO =    0.0000000  ORB. ENERGY =    0.013882
 -0.00000000D+00  0.00000000D+00 -0.00000000D+00  0.00000000D+00 -0.00000000D+00
  0.00000000D+00 -0.00000000D+00  0.00000000D+00 -0.00000000D+00 -0.00000000D+00
  0.00000000D+00  0.89408360D-06  0.51257136D-06 -0.00000000D+00 -0.11393357D-04
 -0.65317244D-05 -0.00000000D+00  0.18928414D-03  0.10851516D-03  0.00000000D+00
 -0.71468089D-03 -0.40972112D-03  0.00000000D+00  0.00000000D+00  0.00000000D+00
 -0.52575456D-08 -0.30141113D-08  0.00000000D+00  0.00000000D+00  0.00000000D+00
  0.00000000D+00  0.14184828D-06  0.81320543D-07  0.00000000D+00  0.00000000D+00
  0.00000000D+00  0.00000000D+00 -0.00000000D+00  0.00000000D+00 -0.00000000D+00
 -0.00000000D+00 -0.00000000D+00  0.00000000D+00 -0.00000000D+00  0.00000000D+00
  0.89408360D-06  0.51257136D-06  0.00000000D+00 -0.11393357D-04 -0.65317244D-05
 -0.00000000D+00  0.18928414D-03  0.10851516D-03  0.00000000D+00 -0.71468089D-03
 -0.40972112D-03 -0.00000000D+00 -0.00000000D+00 -0.00000000D+00  0.52575456D-08
  0.30141113D-08 -0.00000000D+00 -0.00000000D+00 -0.00000000D+00 -0.00000000D+00
 -0.14184828D-06 -0.81320543D-07  0.00000000D+00
MO   11     MO 0.0        OCC NO =    0.0000000  ORB. ENERGY =    0.013882
  0.00000000D+00 -0.00000000D+00 -0.00000000D+00  0.00000000D+00 -0.00000000D+00
  0.00000000D+00 -0.00000000D+00  0.00000000D+00 -0.00000000D+00  0.00000000D+00
 -0.00000000D+00 -0.51257136D-06  0.89408360D-06  0.00000000D+00  0.65317244D-05
 -0.11393357D-04 -0.00000000D+00 -0.10851516D-03  0.18928414D-03 -0.00000000D+00
  0.40972112D-03 -0.71468089D-03 -0.00000000D+00  0.00000000D+00  0.00000000D+00
  0.30141113D-08 -0.52575456D-08 -0.00000000D+00  0.00000000D+00  0.00000000D+00
  0.00000000D+00 -0.81320543D-07  0.14184828D-06  0.00000000D+00  0.00000000D+00
 -0.00000000D+00  0.00000000D+00  0.00000000D+00 -0.00000000D+00 -0.00000000D+00
  0.00000000D+00 -0.00000000D+00  0.00000000D+00 -0.00000000D+00  0.00000000D+00
 -0.51257136D-06  0.89408360D-06 -0.00000000D+00  0.65317244D-05 -0.11393357D-04
  0.00000000D+00 -0.10851516D-03  0.18928414D-03 -0.00000000D+00  0.40972112D-03
 -0.71468089D-03 -0.00000000D+00  0.00000000D+00  0.00000000D+00 -0.30141113D-08
  0.52575456D-08  0.00000000D+00  0.00000000D+00  0.00000000D+00  0.00000000D+00
  0.81320543D-07 -0.14184828D-06 -0.00000000D+00
MO   12     MO 0.0        OCC NO =    0.0000000  ORB. ENERGY =    0.014509
  0.11583095D-03 -0.11935055D-03 -0.10373461D-02  0.12032929D-01 -0.16381104D-01
 -0.57355898D-03 -0.92287514D-02  0.13626099D-01  0.89936232D-03  0.34728575D-03
 -0.92775829D-05 -0.00000000D+00 -0.00000000D+00  0.46592158D-05  0.00000000D+00
  0.00000000D+00 -0.61889159D-04 -0.00000000D+00 -0.00000000D+00 -0.19608705D-03
  0.00000000D+00  0.00000000D+00 -0.33865106D-07  0.20107054D-08  0.20107054D-08
 -0.00000000D+00 -0.00000000D+00  0.00000000D+00  0.48313860D-07  0.52998023D-07
  0.52998023D-07  0.00000000D+00  0.00000000D+00 -0.00000000D+00  0.11583095D-03
 -0.11935055D-03 -0.10373461D-02  0.12032929D-01 -0.16381104D-01 -0.57355898D-03
 -0.92287514D-02  0.13626099D-01  0.89936232D-03  0.34728575D-03  0.92775829D-05
  0.00000000D+00  0.00000000D+00 -0.46592158D-05 -0.00000000D+00 -0.00000000D+00
  0.61889159D-04  0.00000000D+00  0.00000000D+00  0.19608705D-03 -0.00000000D+00
  0.00000000D+00 -0.33865106D-07  0.20107054D-08  0.20107054D-08 -0.00000000D+00
 -0.00000000D+00 -0.00000000D+00  0.48313860D-07  0.52998023D-07  0.52998023D-07
  0.00000000D+00  0.00000000D+00  0.00000000D+00
MO   13     MO 0.0        OCC NO =    0.0000000  ORB. ENERGY =    0.014878
 -0.69504819D-05 -0.79095656D-04 -0.19379322D-02  0.28092387D-02 -0.24214635D-02
  0.29761297D-02 -0.66164956D-03 -0.59402686D-03 -0.79312222D-03  0.22854323D-03
  0.59994706D-06 -0.00000000D+00  0.00000000D+00  0.53442678D-05  0.00000000D+00
 -0.00000000D+00 -0.10545123D-03 -0.00000000D+00 -0.00000000D+00  0.89570851D-03
  0.00000000D+00  0.00000000D+00  0.11239455D-07  0.36112040D-08  0.36112040D-08
 -0.00000000D+00  0.00000000D+00 -0.00000000D+00  0.11585224D-06  0.16910718D-06
  0.16910718D-06 -0.00000000D+00 -0.00000000D+00  0.00000000D+00  0.69504819D-05
  0.79095656D-04  0.19379322D-02 -0.28092387D-02  0.24214635D-02 -0.29761297D-02
  0.66164956D-03  0.59402686D-03  0.79312222D-03 -0.22854323D-03  0.59994706D-06
  0.00000000D+00 -0.00000000D+00  0.53442678D-05  0.00000000D+00  0.00000000D+00
 -0.10545123D-03 -0.00000000D+00 -0.00000000D+00  0.89570851D-03  0.00000000D+00
  0.00000000D+00 -0.11239455D-07 -0.36112040D-08 -0.36112040D-08 -0.00000000D+00
  0.00000000D+00  0.00000000D+00 -0.11585224D-06 -0.16910718D-06 -0.16910718D-06
 -0.00000000D+00 -0.00000000D+00 -0.00000000D+00
MO   14     MO 0.0        OCC NO =    0.0000000  ORB. ENERGY =    0.018361
  0.15035227D-04 -0.86227562D-04 -0.15785934D-01  0.22748105D-01 -0.22415692D-01
  0.15606319D-02 -0.10535191D-01  0.14389230D-01  0.41707343D-03  0.54173166D-03
 -0.14737801D-05 -0.00000000D+00  0.00000000D+00  0.56001651D-05  0.00000000D+00
 -0.00000000D+00 -0.41235181D-03 -0.00000000D+00  0.00000000D+00  0.11005175D-03
  0.00000000D+00 -0.00000000D+00 -0.56020052D-08 -0.26544095D-07 -0.26544095D-07
 -0.00000000D+00  0.00000000D+00  0.00000000D+00 -0.20375389D-06  0.26257065D-07
  0.26257065D-07  0.00000000D+00 -0.00000000D+00 -0.00000000D+00 -0.15035227D-04
  0.86227562D-04  0.15785934D-01 -0.22748105D-01  0.22415692D-01 -0.15606319D-02
  0.10535191D-01 -0.14389230D-01 -0.41707343D-03 -0.54173166D-03 -0.14737801D-05
  0.00000000D+00 -0.00000000D+00  0.56001651D-05 -0.00000000D+00  0.00000000D+00
 -0.41235181D-03  0.00000000D+00 -0.00000000D+00  0.11005175D-03 -0.00000000D+00
  0.00000000D+00  0.56020052D-08  0.26544095D-07  0.26544095D-07 -0.00000000D+00
  0.00000000D+00 -0.00000000D+00  0.20375389D-06 -0.26257065D-07 -0.26257065D-07
  0.00000000D+00 -0.00000000D+00  0.00000000D+00
MO   15     MO 0.0        OCC NO =    0.0000000  ORB. ENERGY =    0.020331
 -0.00000000D+00  0.00000000D+00  0.00000000D+00 -0.00000000D+00  0.00000000D+00
 -0.00000000D+00  0.00000000D+00 -0.00000000D+00  0.00000000D+00  0.00000000D+00
  0.00000000D+00  0.42242990D-04  0.81583639D-04  0.00000000D+00 -0.37216833D-04
 -0.71876651D-04 -0.00000000D+00  0.17436542D-03  0.33675092D-03  0.00000000D+00
 -0.33024381D-03 -0.63779792D-03  0.00000000D+00 -0.00000000D+00 -0.00000000D+00
  0.16112356D-06  0.31117699D-06  0.00000000D+00  0.00000000D+00  0.00000000D+00
  0.00000000D+00 -0.25116990D-06 -0.48508293D-06 -0.00000000D+00  0.00000000D+00
 -0.00000000D+00  0.00000000D+00  0.00000000D+00 -0.00000000D+00 -0.00000000D+00
 -0.00000000D+00  0.00000000D+00 -0.00000000D+00  0.00000000D+00 -0.00000000D+00
 -0.42242990D-04 -0.81583639D-04  0.00000000D+00  0.37216833D-04  0.71876651D-04
 -0.00000000D+00 -0.17436542D-03 -0.33675092D-03  0.00000000D+00  0.33024381D-03
  0.63779792D-03  0.00000000D+00  0.00000000D+00  0.00000000D+00  0.16112356D-06
  0.31117699D-06 -0.00000000D+00 -0.00000000D+00  0.00000000D+00  0.00000000D+00
 -0.25116990D-06 -0.48508293D-06  0.00000000D+00
MO   16     MO 0.0        OCC NO =    0.0000000  ORB. ENERGY =    0.020331
  0.00000000D+00 -0.00000000D+00  0.00000000D+00 -0.00000000D+00  0.00000000D+00
  0.00000000D+00  0.00000000D+00 -0.00000000D+00 -0.00000000D+00  0.00000000D+00
 -0.00000000D+00 -0.81583639D-04  0.42242990D-04 -0.00000000D+00  0.71876651D-04
 -0.37216833D-04  0.00000000D+00 -0.33675092D-03  0.17436542D-03  0.00000000D+00
  0.63779792D-03 -0.33024381D-03 -0.00000000D+00 -0.00000000D+00  0.00000000D+00
 -0.31117699D-06  0.16112356D-06 -0.00000000D+00 -0.00000000D+00 -0.00000000D+00
 -0.00000000D+00  0.48508293D-06 -0.25116990D-06  0.00000000D+00 -0.00000000D+00
  0.00000000D+00 -0.00000000D+00  0.00000000D+00 -0.00000000D+00 -0.00000000D+00
 -0.00000000D+00  0.00000000D+00  0.00000000D+00 -0.00000000D+00  0.00000000D+00
  0.81583639D-04 -0.42242990D-04 -0.00000000D+00 -0.71876651D-04  0.37216833D-04
  0.00000000D+00  0.33675092D-03 -0.17436542D-03 -0.00000000D+00 -0.63779792D-03
  0.33024381D-03 -0.00000000D+00  0.00000000D+00  0.00000000D+00 -0.31117699D-06
  0.16112356D-06  0.00000000D+00  0.00000000D+00  0.00000000D+00  0.00000000D+00
  0.48508293D-06 -0.25116990D-06 -0.00000000D+00
MO   17     MO 0.0        OCC NO =    0.0000000  ORB. ENERGY =    0.025289
  0.83646220D-03 -0.22740570D-02  0.67556394D-02 -0.10464788D-01  0.83372244D-02
  0.20312041D-02  0.31110599D-02 -0.55058092D-02 -0.81254346D-03  0.42636452D-06
 -0.58947472D-04 -0.00000000D+00  0.00000000D+00  0.61445406D-04  0.00000000D+00
 -0.00000000D+00 -0.26491206D-03  0.00000000D+00  0.00000000D+00  0.54956548D-03
 -0.00000000D+00  0.00000000D+00 -0.22450552D-06  0.10234978D-07  0.10234978D-07
 -0.00000000D+00  0.00000000D+00  0.00000000D+00  0.82179943D-06  0.34610866D-06
  0.34610866D-06  0.00000000D+00 -0.00000000D+00 -0.00000000D+00  0.83646220D-03
 -0.22740570D-02  0.67556394D-02 -0.10464788D-01  0.83372244D-02  0.20312041D-02
  0.31110599D-02 -0.55058092D-02 -0.81254346D-03  0.42636452D-06  0.58947472D-04
  0.00000000D+00 -0.00000000D+00 -0.61445406D-04 -0.00000000D+00  0.00000000D+00
  0.26491206D-03  0.00000000D+00 -0.00000000D+00 -0.54956548D-03  0.00000000D+00
  0.00000000D+00 -0.22450552D-06  0.10234978D-07  0.10234978D-07 -0.00000000D+00
  0.00000000D+00 -0.00000000D+00  0.82179943D-06  0.34610866D-06  0.34610866D-06
  0.00000000D+00 -0.00000000D+00  0.00000000D+00
MO   18     MO 0.0        OCC NO =    0.0000000  ORB. ENERGY =    0.027420
  0.46262296D-04  0.56461665D-03  0.46574406D-02  0.28667600D-02 -0.25056879D-02
 -0.11266358D-02 -0.98440067D-03  0.19549659D-02  0.36220246D-03 -0.23225023D-04
 -0.40241764D-05  0.00000000D+00 -0.00000000D+00 -0.40825367D-04 -0.00000000D+00
  0.00000000D+00  0.69170616D-03  0.00000000D+00 -0.00000000D+00 -0.68265947D-03
 -0.00000000D+00 -0.00000000D+00 -0.72435590D-07 -0.27025127D-07 -0.27025127D-07
  0.00000000D+00 -0.00000000D+00  0.00000000D+00 -0.87459270D-06 -0.11237623D-05
 -0.11237623D-05 -0.00000000D+00  0.00000000D+00 -0.00000000D+00 -0.46262296D-04
 -0.56461665D-03 -0.46574406D-02 -0.28667600D-02  0.25056879D-02  0.11266358D-02
  0.98440067D-03 -0.19549659D-02 -0.36220246D-03  0.23225023D-04 -0.40241764D-05
 -0.00000000D+00  0.00000000D+00 -0.40825367D-04  0.00000000D+00 -0.00000000D+00
  0.69170616D-03 -0.00000000D+00  0.00000000D+00 -0.68265947D-03  0.00000000D+00
 -0.00000000D+00  0.72435590D-07  0.27025127D-07  0.27025127D-07  0.00000000D+00
 -0.00000000D+00 -0.00000000D+00  0.87459270D-06  0.11237623D-05  0.11237623D-05
 -0.00000000D+00  0.00000000D+00  0.00000000D+00
MO   19     MO 0.0        OCC NO =    0.0000000  ORB. ENERGY =    0.029737
 -0.38108787D-02 -0.37907869D-02  0.17730227D-01 -0.17745858D-01  0.85304313D-02
  0.48861230D-02  0.20699130D-02 -0.54694024D-02 -0.15258401D-02  0.22912356D-03
  0.63368832D-04  0.00000000D+00  0.00000000D+00 -0.11902090D-03 -0.00000000D+00
 -0.00000000D+00  0.91445662D-04  0.00000000D+00  0.00000000D+00 -0.23239854D-03
 -0.00000000D+00 -0.00000000D+00  0.34377896D-06  0.88672599D-07  0.88672599D-07
  0.00000000D+00  0.00000000D+00  0.00000000D+00  0.71815733D-06  0.18920486D-05
  0.18920486D-05 -0.00000000D+00 -0.00000000D+00 -0.00000000D+00 -0.38108787D-02
 -0.37907869D-02  0.17730227D-01 -0.17745858D-01  0.85304313D-02  0.48861230D-02
  0.20699130D-02 -0.54694024D-02 -0.15258401D-02  0.22912356D-03 -0.63368832D-04
 -0.00000000D+00 -0.00000000D+00  0.11902090D-03  0.00000000D+00  0.00000000D+00
 -0.91445662D-04 -0.00000000D+00 -0.00000000D+00  0.23239854D-03  0.00000000D+00
  0.00000000D+00  0.34377896D-06  0.88672599D-07  0.88672599D-07  0.00000000D+00
  0.00000000D+00 -0.00000000D+00  0.71815733D-06  0.18920486D-05  0.18920486D-05
 -0.00000000D+00 -0.00000000D+00  0.00000000D+00
MO   20     MO 0.0        OCC NO =    0.0000000  ORB. ENERGY =    0.038646
  0.46107800D-03  0.73168528D-03 -0.16397368D-01  0.10428180D-01  0.77154230D-03
 -0.13305971D-01  0.18052010D-02  0.37684731D-02  0.31509167D-02 -0.82134388D-03
 -0.40689626D-04  0.00000000D+00  0.00000000D+00 -0.15072502D-04  0.00000000D+00
 -0.00000000D+00  0.18137014D-03  0.00000000D+00  0.00000000D+00 -0.19737581D-03
 -0.00000000D+00 -0.00000000D+00 -0.62304798D-06 -0.59415768D-06 -0.59415768D-06
  0.00000000D+00  0.00000000D+00 -0.00000000D+00 -0.46208003D-05 -0.43909013D-05
 -0.43909013D-05  0.00000000D+00 -0.00000000D+00  0.00000000D+00 -0.46107800D-03
 -0.73168528D-03  0.16397368D-01 -0.10428180D-01 -0.77154230D-03  0.13305971D-01
 -0.18052010D-02 -0.37684731D-02 -0.31509167D-02  0.82134388D-03 -0.40689626D-04
 -0.00000000D+00 -0.00000000D+00 -0.15072502D-04 -0.00000000D+00  0.00000000D+00
  0.18137014D-03  0.00000000D+00 -0.00000000D+00 -0.19737581D-03 -0.00000000D+00
  0.00000000D+00  0.62304798D-06  0.59415768D-06  0.59415768D-06  0.00000000D+00
  0.00000000D+00  0.00000000D+00  0.46208003D-05  0.43909013D-05  0.43909013D-05
  0.00000000D+00 -0.00000000D+00  0.00000000D+00
MO   21     MO 0.0        OCC NO =    0.0000000  ORB. ENERGY =    0.040171
 -0.00000000D+00  0.00000000D+00 -0.00000000D+00  0.00000000D+00 -0.00000000D+00
  0.00000000D+00 -0.00000000D+00  0.00000000D+00 -0.00000000D+00  0.00000000D+00
  0.00000000D+00  0.00000000D+00 -0.00000000D+00 -0.00000000D+00 -0.00000000D+00
  0.00000000D+00  0.00000000D+00  0.00000000D+00 -0.00000000D+00 -0.00000000D+00
 -0.00000000D+00  0.00000000D+00 -0.00000000D+00  0.47741192D-07 -0.47741192D-07
  0.00000000D+00 -0.00000000D+00  0.16308246D-07 -0.00000000D+00 -0.63870258D-06
  0.63870258D-06 -0.00000000D+00  0.00000000D+00 -0.21817886D-06 -0.00000000D+00
  0.00000000D+00  0.00000000D+00  0.00000000D+00 -0.00000000D+00  0.00000000D+00
 -0.00000000D+00 -0.00000000D+00 -0.00000000D+00  0.00000000D+00 -0.00000000D+00
 -0.00000000D+00  0.00000000D+00  0.00000000D+00  0.00000000D+00 -0.00000000D+00
  0.00000000D+00 -0.00000000D+00  0.00000000D+00 -0.00000000D+00  0.00000000D+00
 -0.00000000D+00  0.00000000D+00  0.47741192D-07 -0.47741192D-07  0.00000000D+00
 -0.00000000D+00  0.16308246D-07  0.00000000D+00 -0.63870258D-06  0.63870258D-06
 -0.00000000D+00  0.00000000D+00 -0.21817886D-06
MO   22     MO 0.0        OCC NO =    0.0000000  ORB. ENERGY =    0.040171
  0.00000000D+00 -0.00000000D+00 -0.00000000D+00  0.00000000D+00 -0.00000000D+00
 -0.00000000D+00 -0.00000000D+00  0.00000000D+00  0.00000000D+00 -0.00000000D+00
 -0.00000000D+00 -0.00000000D+00  0.00000000D+00  0.00000000D+00  0.00000000D+00
 -0.00000000D+00  0.00000000D+00 -0.00000000D+00  0.00000000D+00  0.00000000D+00
  0.00000000D+00 -0.00000000D+00 -0.00000000D+00 -0.81541237D-08  0.81541237D-08
 -0.00000000D+00  0.00000000D+00  0.95482383D-07 -0.00000000D+00  0.10908943D-06
 -0.10908943D-06  0.00000000D+00 -0.00000000D+00 -0.12774052D-05  0.00000000D+00
 -0.00000000D+00  0.00000000D+00 -0.00000000D+00  0.00000000D+00  0.00000000D+00
 -0.00000000D+00 -0.00000000D+00 -0.00000000D+00  0.00000000D+00  0.00000000D+00
  0.00000000D+00 -0.00000000D+00 -0.00000000D+00 -0.00000000D+00  0.00000000D+00
  0.00000000D+00  0.00000000D+00  0.00000000D+00 -0.00000000D+00 -0.00000000D+00
 -0.00000000D+00 -0.00000000D+00 -0.81541237D-08  0.81541237D-08 -0.00000000D+00
  0.00000000D+00  0.95482383D-07  0.00000000D+00  0.10908943D-06 -0.10908943D-06
  0.00000000D+00 -0.00000000D+00 -0.12774052D-05
MO   23     MO 0.0        OCC NO =    0.0000000  ORB. ENERGY =    0.042532
 -0.21999771D-03  0.10765351D-02 -0.44702460D-02  0.31512387D-02  0.49105606D-02
 -0.13529125D-01  0.28615713D-02  0.22266212D-02  0.29984823D-02 -0.84336087D-03
  0.17683643D-04 -0.00000000D+00 -0.00000000D+00 -0.10527655D-03  0.00000000D+00
  0.00000000D+00  0.12650053D-03 -0.00000000D+00 -0.00000000D+00 -0.14000426D-03
  0.00000000D+00  0.00000000D+00  0.46657402D-06  0.42771466D-06  0.42771466D-06
 -0.00000000D+00 -0.00000000D+00  0.00000000D+00 -0.22954305D-06  0.33065977D-06
  0.33065977D-06  0.00000000D+00  0.00000000D+00 -0.00000000D+00  0.21999771D-03
 -0.10765351D-02  0.44702460D-02 -0.31512387D-02 -0.49105606D-02  0.13529125D-01
 -0.28615713D-02 -0.22266212D-02 -0.29984823D-02  0.84336087D-03  0.17683643D-04
  0.00000000D+00  0.00000000D+00 -0.10527655D-03 -0.00000000D+00 -0.00000000D+00
  0.12650053D-03  0.00000000D+00  0.00000000D+00 -0.14000426D-03 -0.00000000D+00
 -0.00000000D+00 -0.46657402D-06 -0.42771466D-06 -0.42771466D-06 -0.00000000D+00
 -0.00000000D+00 -0.00000000D+00  0.22954305D-06 -0.33065977D-06 -0.33065977D-06
  0.00000000D+00  0.00000000D+00  0.00000000D+00
MO   24     MO 0.0        OCC NO =    0.0000000  ORB. ENERGY =    0.043235
  0.10430223D-01 -0.39073212D-02 -0.13913653D-02  0.20499890D-03 -0.15408824D-02
  0.34270452D-02 -0.78178932D-03 -0.47679921D-03 -0.74990503D-03  0.21462716D-03
 -0.33852369D-03 -0.00000000D+00  0.00000000D+00  0.10857910D-03  0.00000000D+00
  0.00000000D+00 -0.69662891D-04 -0.00000000D+00 -0.00000000D+00  0.72482846D-04
 -0.00000000D+00  0.00000000D+00 -0.15783086D-05 -0.16087570D-06 -0.16087570D-06
 -0.00000000D+00  0.00000000D+00 -0.00000000D+00 -0.61941447D-07 -0.11301456D-05
 -0.11301456D-05  0.00000000D+00  0.00000000D+00  0.00000000D+00  0.10430223D-01
 -0.39073212D-02 -0.13913653D-02  0.20499890D-03 -0.15408824D-02  0.34270452D-02
 -0.78178932D-03 -0.47679921D-03 -0.74990503D-03  0.21462716D-03  0.33852369D-03
  0.00000000D+00 -0.00000000D+00 -0.10857910D-03 -0.00000000D+00 -0.00000000D+00