[Molden Format]
[Title]
 Molden2AIM, Version 3.1.0 (02/25/2015)           Time: Thu Oct 17 19:54:00 2024

[Atoms] AU
E+       1       4     0.00000000     0.00000000     0.00000000
E+       2       4    27.00000000     0.00000000     0.00000000
[GTO]
    1 0
 S   1 1.0
    0.1000000000D-03      0.1000000000D+01
 S   1 1.0
    0.3000000000D-03      0.1000000000D+01
 S   1 1.0
    0.9000000000D-03      0.1000000000D+01
 S   1 1.0
    0.2700000000D-02      0.1000000000D+01
 S   1 1.0
    0.8100000000D-02      0.1000000000D+01
 S   1 1.0
    0.2430000000D-01      0.1000000000D+01
 S   1 1.0
    0.7290000000D-01      0.1000000000D+01
 S   1 1.0
    0.2187000000D+00      0.1000000000D+01
 S   1 1.0
    0.6561000000D+00      0.1000000000D+01
 S   1 1.0
    0.1968300000D+01      0.1000000000D+01
 P   1 1.0
    0.1000000000D-03      0.1000000000D+01
 P   1 1.0
    0.3000000000D-03      0.1000000000D+01
 P   1 1.0
    0.9000000000D-03      0.1000000000D+01
 P   1 1.0
    0.2700000000D-02      0.1000000000D+01
 D   1 1.0
    0.1000000000D-03      0.1000000000D+01
 D   1 1.0
    0.3000000000D-03      0.1000000000D+01

    2 0
 S   1 1.0
    0.1000000000D-03      0.1000000000D+01
 S   1 1.0
    0.3000000000D-03      0.1000000000D+01
 S   1 1.0
    0.9000000000D-03      0.1000000000D+01
 S   1 1.0
    0.2700000000D-02      0.1000000000D+01
 S   1 1.0
    0.8100000000D-02      0.1000000000D+01
 S   1 1.0
    0.2430000000D-01      0.1000000000D+01
 S   1 1.0
    0.7290000000D-01      0.1000000000D+01
 S   1 1.0
    0.2187000000D+00      0.1000000000D+01
 S   1 1.0
    0.6561000000D+00      0.1000000000D+01
 S   1 1.0
    0.1968300000D+01      0.1000000000D+01
 P   1 1.0
    0.1000000000D-03      0.1000000000D+01
 P   1 1.0
    0.3000000000D-03      0.1000000000D+01
 P   1 1.0
    0.9000000000D-03      0.1000000000D+01
 P   1 1.0
    0.2700000000D-02      0.1000000000D+01
 D   1 1.0
    0.1000000000D-03      0.1000000000D+01
 D   1 1.0
    0.3000000000D-03      0.1000000000D+01


[MO]
 Ene=         -0.00310359
 Spin= Alpha
 Occup=        1.00000000
    1       -0.0748269400
    2        0.0550858400
    3        0.0177645100
    4        0.2784969300
    5        0.2148780700
    6        0.1695375300
    7        0.1084623200
    8       -0.0877603700
    9       -0.0059760400
   10        0.0000842300
   11        0.3295836000
   12       -0.0000000000
   13       -0.0000000000
   14       -0.1022007200
   15        0.0000000000
   16        0.0000000000
   17        0.0449172600
   18       -0.0000000000
   19       -0.0000000000
   20       -0.0222924600
   21        0.0000000000
   22       -0.0000000000
   23        0.0760994300
   24       -0.0021363600
   25       -0.0021363600
   26        0.0000000000
   27       -0.0000000000
   28       -0.0000000000
   29       -0.0440257700
   30       -0.0076365800
   31       -0.0076365800
   32        0.0000000000
   33        0.0000000000
   34        0.0000000000
   35       -0.0748269400
   36        0.0550858400
   37        0.0177645100
   38        0.2784969300
   39        0.2148780700
   40        0.1695375300
   41        0.1084623200
   42       -0.0877603700
   43       -0.0059760400
   44        0.0000842300
   45       -0.3295836000
   46        0.0000000000
   47        0.0000000000
   48        0.1022007200
   49       -0.0000000000
   50       -0.0000000000
   51       -0.0449172600
   52        0.0000000000
   53        0.0000000000
   54        0.0222924600
   55       -0.0000000000
   56       -0.0000000000
   57        0.0760994300
   58       -0.0021363600
   59       -0.0021363600
   60       -0.0000000000
   61       -0.0000000000
   62        0.0000000000
   63       -0.0440257700
   64       -0.0076365800
   65       -0.0076365800
   66        0.0000000000
   67       -0.0000000000
   68       -0.0000000000
 Ene=         -0.00170451
 Spin= Alpha
 Occup=        0.00000000
    1        0.0015923400
    2        0.0064799300
    3        0.2368951500
    4        0.3634588600
    5        0.2332446300
    6        0.1933450100
    7        0.1147664000
    8       -0.0943157300
    9       -0.0067087600
   10        0.0001298100
   11       -0.0102109000
   12       -0.0000000000
   13        0.0000000000
   14       -0.0195115200
   15        0.0000000000
   16       -0.0000000000
   17        0.1404985700
   18       -0.0000000000
   19        0.0000000000
   20       -0.0650923600
   21        0.0000000000
   22        0.0000000000
   23       -0.0204365200
   24       -0.0090927200
   25       -0.0090927200
   26       -0.0000000000
   27        0.0000000000
   28       -0.0000000000
   29       -0.0313971600
   30       -0.0455149800
   31       -0.0455149800
   32        0.0000000000
   33       -0.0000000000
   34        0.0000000000
   35       -0.0015923400
   36       -0.0064799300
   37       -0.2368951500
   38       -0.3634588600
   39       -0.2332446300
   40       -0.1933450100
   41       -0.1147664000
   42        0.0943157300
   43        0.0067087600
   44       -0.0001298100
   45       -0.0102109000
   46        0.0000000000
   47       -0.0000000000
   48       -0.0195115200
   49       -0.0000000000
   50        0.0000000000
   51        0.1404985700
   52       -0.0000000000
   53       -0.0000000000
   54       -0.0650923600
   55        0.0000000000
   56        0.0000000000
   57        0.0204365200
   58        0.0090927200
   59        0.0090927200
   60       -0.0000000000
   61        0.0000000000
   62       -0.0000000000
   63        0.0313971600
   64        0.0455149800
   65        0.0455149800
   66        0.0000000000
   67       -0.0000000000
   68        0.0000000000
 Ene=          0.00396598
 Spin= Alpha
 Occup=        0.00000000
    1       -0.8732877300
    2        0.1014504700
    3        1.1448044100
    4       -0.9158210600
    5        0.0218560200
    6       -0.1195033000
    7       -0.0312503300
    8        0.0326212200
    9        0.0035404200
   10       -0.0002168200
   11        2.7178465800
   12        0.0000000000
   13        0.0000000000
   14       -0.8690826900
   15       -0.0000000000
   16       -0.0000000000
   17        0.5161588400
   18        0.0000000000
   19        0.0000000000
   20       -0.0694946100
   21       -0.0000000000
   22       -0.0000000000
   23        0.6620768900
   24        0.0196725600
   25        0.0196725600
   26        0.0000000000
   27        0.0000000000
   28        0.0000000000
   29       -0.2247772000
   30        0.0748432500
   31        0.0748432500
   32       -0.0000000000
   33       -0.0000000000
   34       -0.0000000000
   35       -0.8732877300
   36        0.1014504700
   37        1.1448044100
   38       -0.9158210600
   39        0.0218560200
   40       -0.1195033000
   41       -0.0312503300
   42        0.0326212200
   43        0.0035404200
   44       -0.0002168200
   45       -2.7178465800
   46       -0.0000000000
   47       -0.0000000000
   48        0.8690826900
   49        0.0000000000
   50        0.0000000000
   51       -0.5161588400
   52       -0.0000000000
   53       -0.0000000000
   54        0.0694946100
   55        0.0000000000
   56        0.0000000000
   57        0.6620768900
   58        0.0196725600
   59        0.0196725600
   60        0.0000000000
   61        0.0000000000
   62       -0.0000000000
   63       -0.2247772000
   64        0.0748432500
   65        0.0748432500
   66       -0.0000000000
   67       -0.0000000000
   68        0.0000000000
 Ene=          0.00451713
 Spin= Alpha
 Occup=        0.00000000
    1       -0.0000000000
    2       -0.0000000000
    3        0.0000000000
    4        0.0000000000
    5        0.0000000000
    6        0.0000000000
    7        0.0000000000
    8       -0.0000000000
    9        0.0000000000
   10       -0.0000000000
   11        0.0000000000
   12        0.0219298700
   13        0.0185150400
   14        0.0000000000
   15       -0.0800038900
   16       -0.0675460100
   17        0.0000000000
   18        0.3155768100
   19        0.2664364700
   20        0.0000000000
   21        0.1868528300
   22        0.1577568700
   23        0.0000000000
   24       -0.0000000000
   25       -0.0000000000
   26        0.0178159800
   27        0.0150417500
   28       -0.0000000000
   29        0.0000000000
   30       -0.0000000000
   31       -0.0000000000
   32        0.0073098400
   33        0.0061715800
   34        0.0000000000
   35       -0.0000000000
   36       -0.0000000000
   37       -0.0000000000
   38        0.0000000000
   39       -0.0000000000
   40        0.0000000000
   41        0.0000000000
   42       -0.0000000000
   43        0.0000000000
   44       -0.0000000000
   45       -0.0000000000
   46        0.0219298700
   47        0.0185150400
   48       -0.0000000000
   49       -0.0800038900
   50       -0.0675460100
   51        0.0000000000
   52        0.3155768100
   53        0.2664364700
   54       -0.0000000000
   55        0.1868528300
   56        0.1577568700
   57        0.0000000000
   58        0.0000000000
   59        0.0000000000
   60       -0.0178159800
   61       -0.0150417500
   62        0.0000000000
   63        0.0000000000
   64        0.0000000000
   65        0.0000000000
   66       -0.0073098400
   67       -0.0061715800
   68       -0.0000000000
 Ene=          0.00451713
 Spin= Alpha
 Occup=        0.00000000
    1       -0.0000000000
    2       -0.0000000000
    3       -0.0000000000
    4       -0.0000000000
    5        0.0000000000
    6        0.0000000000
    7       -0.0000000000
    8        0.0000000000
    9        0.0000000000
   10       -0.0000000000
   11        0.0000000000
   12       -0.0185150400
   13        0.0219298700
   14        0.0000000000
   15        0.0675460100
   16       -0.0800038900
   17       -0.0000000000
   18       -0.2664364700
   19        0.3155768100
   20       -0.0000000000
   21       -0.1577568700
   22        0.1868528300
   23        0.0000000000
   24        0.0000000000
   25        0.0000000000
   26       -0.0150417500
   27        0.0178159800
   28        0.0000000000
   29        0.0000000000
   30        0.0000000000
   31        0.0000000000
   32       -0.0061715800
   33        0.0073098400
   34       -0.0000000000
   35       -0.0000000000
   36       -0.0000000000
   37        0.0000000000
   38       -0.0000000000
   39        0.0000000000
   40       -0.0000000000
   41        0.0000000000
   42        0.0000000000
   43        0.0000000000
   44       -0.0000000000
   45       -0.0000000000
   46       -0.0185150400
   47        0.0219298700
   48       -0.0000000000
   49        0.0675460100
   50       -0.0800038900
   51       -0.0000000000
   52       -0.2664364700
   53        0.3155768100
   54       -0.0000000000
   55       -0.1577568700
   56        0.1868528300
   57        0.0000000000
   58        0.0000000000
   59       -0.0000000000
   60        0.0150417500
   61       -0.0178159800
   62       -0.0000000000
   63        0.0000000000
   64       -0.0000000000
   65       -0.0000000000
   66        0.0061715800
   67       -0.0073098400
   68        0.0000000000
 Ene=          0.00718374
 Spin= Alpha
 Occup=        0.00000000
    1       -0.0171333000
    2        0.0035705300
    3        4.7165848000
    4       -0.0872256800
    5       -0.4475764700
    6       -0.0456413000
    7       -0.0801474000
    8        0.0561299000
    9        0.0024197700
   10        0.0001546500
   11        0.1152312800
   12       -0.0000000000
   13        0.0000000000
   14       -0.0086740300
   15        0.0000000000
   16       -0.0000000000
   17        1.4632892400
   18       -0.0000000000
   19        0.0000000000
   20       -0.0259881100
   21       -0.0000000000
   22        0.0000000000
   23        0.1147134400
   24        0.2050946000
   25        0.2050946000
   26       -0.0000000000
   27        0.0000000000
   28        0.0000000000
   29        0.3011071800
   30        0.1456367900
   31        0.1456367900
   32        0.0000000000
   33       -0.0000000000
   34       -0.0000000000
   35        0.0171333000
   36       -0.0035705300
   37       -4.7165848000
   38        0.0872256800
   39        0.4475764700
   40        0.0456413000
   41        0.0801474000
   42       -0.0561299000
   43       -0.0024197700
   44       -0.0001546500
   45        0.1152312800
   46        0.0000000000
   47       -0.0000000000
   48       -0.0086740300
   49       -0.0000000000
   50        0.0000000000
   51        1.4632892400
   52        0.0000000000
   53       -0.0000000000
   54       -0.0259881100
   55        0.0000000000
   56       -0.0000000000
   57       -0.1147134400
   58       -0.2050946000
   59       -0.2050946000
   60       -0.0000000000
   61        0.0000000000
   62        0.0000000000
   63       -0.3011071800
   64       -0.1456367900
   65       -0.1456367900
   66        0.0000000000
   67       -0.0000000000
   68       -0.0000000000
 Ene=          0.00727198
 Spin= Alpha
 Occup=        0.00000000
    1       -0.0000000000
    2        0.0000000000
    3        0.0000000000
    4       -0.0000000000
    5       -0.0000000000
    6       -0.0000000000
    7       -0.0000000000
    8        0.0000000000
    9        0.0000000000
   10        0.0000000000
   11       -0.0000000000
   12        4.8861011500
   13       -1.5367463800
   14        0.0000000000
   15       -1.0595143800
   16        0.3332319200
   17        0.0000000000
   18        0.4655495500
   19       -0.1464217700
   20       -0.0000000000
   21        0.6497163400
   22       -0.2043447700
   23       -0.0000000000
   24        0.0000000000
   25        0.0000000000
   26        0.6567815600
   27       -0.2065668800
   28        0.0000000000
   29        0.0000000000
   30        0.0000000000
   31        0.0000000000
   32       -0.2048144500
   33        0.0644169800
   34       -0.0000000000
   35        0.0000000000
   36       -0.0000000000
   37       -0.0000000000
   38        0.0000000000
   39        0.0000000000
   40        0.0000000000
   41        0.0000000000
   42       -0.0000000000
   43       -0.0000000000
   44        0.0000000000
   45       -0.0000000000
   46       -4.8861011500
   47        1.5367463800
   48        0.0000000000
   49        1.0595143800
   50       -0.3332319200
   51        0.0000000000
   52       -0.4655495500
   53        0.1464217700
   54       -0.0000000000
   55       -0.6497163400
   56        0.2043447700
   57        0.0000000000
   58       -0.0000000000
   59       -0.0000000000
   60        0.6567815600
   61       -0.2065668800
   62       -0.0000000000
   63       -0.0000000000
   64       -0.0000000000
   65       -0.0000000000
   66       -0.2048144500
   67        0.0644169800
   68        0.0000000000
 Ene=          0.00727198
 Spin= Alpha
 Occup=        0.00000000
    1       -0.0000000000
    2       -0.0000000000
    3       -0.0000000000
    4       -0.0000000000
    5        0.0000000000
    6        0.0000000000
    7        0.0000000000
    8       -0.0000000000
    9       -0.0000000000
   10       -0.0000000000
   11       -0.0000000000
   12        1.5367463800
   13        4.8861011500
   14       -0.0000000000
   15       -0.3332319200
   16       -1.0595143800
   17        0.0000000000
   18        0.1464217700
   19        0.4655495500
   20        0.0000000000
   21        0.2043447700
   22        0.6497163400
   23        0.0000000000
   24       -0.0000000000
   25       -0.0000000000
   26        0.2065668800
   27        0.6567815600
   28       -0.0000000000
   29       -0.0000000000
   30       -0.0000000000
   31       -0.0000000000
   32       -0.0644169800
   33       -0.2048144500
   34        0.0000000000
   35        0.0000000000
   36        0.0000000000
   37        0.0000000000
   38       -0.0000000000
   39        0.0000000000
   40       -0.0000000000
   41       -0.0000000000
   42        0.0000000000
   43       -0.0000000000
   44        0.0000000000
   45       -0.0000000000
   46       -1.5367463800
   47       -4.8861011500
   48       -0.0000000000
   49        0.3332319200
   50        1.0595143800
   51       -0.0000000000
   52       -0.1464217700
   53       -0.4655495500
   54       -0.0000000000
   55       -0.2043447700
   56       -0.6497163400
   57        0.0000000000
   58       -0.0000000000
   59       -0.0000000000
   60        0.2065668800
   61        0.6567815600
   62        0.0000000000
   63        0.0000000000
   64       -0.0000000000
   65       -0.0000000000
   66       -0.0644169800
   67       -0.2048144500
   68       -0.0000000000
 Ene=          0.00749250
 Spin= Alpha
 Occup=        0.00000000
    1       -0.2626425200
    2        0.1365574000
    3       -0.0006499000
    4       -0.4375308700
    5        0.1640217300
    6       -0.0064602900
    7        0.0179592700
    8       -0.0110044100
    9       -0.0001961800
   10       -0.0000696900
   11        1.0084043400
   12        0.0000000000
   13       -0.0000000000
   14       -0.2565014500
   15       -0.0000000000
   16        0.0000000000
   17        0.1320453800
   18        0.0000000000
   19       -0.0000000000
   20        0.6034237800
   21       -0.0000000000
   22       -0.0000000000
   23        0.2372339300
   24       -0.0011426100
   25       -0.0011426100
   26        0.0000000000
   27       -0.0000000000
   28        0.0000000000
   29       -0.0980029000
   30       -0.0117251800
   31       -0.0117251800
   32       -0.0000000000
   33        0.0000000000
   34       -0.0000000000
   35       -0.2626425200
   36        0.1365574000
   37       -0.0006499000
   38       -0.4375308700
   39        0.1640217300
   40       -0.0064602900
   41        0.0179592700
   42       -0.0110044100
   43       -0.0001961800
   44       -0.0000696900
   45       -1.0084043400
   46       -0.0000000000
   47        0.0000000000
   48        0.2565014500
   49        0.0000000000
   50       -0.0000000000
   51       -0.1320453800
   52       -0.0000000000
   53        0.0000000000
   54       -0.6034237800
   55        0.0000000000
   56        0.0000000000
   57        0.2372339300
   58       -0.0011426100
   59       -0.0011426100
   60        0.0000000000
   61       -0.0000000000
   62       -0.0000000000
   63       -0.0980029000
   64       -0.0117251800
   65       -0.0117251800
   66       -0.0000000000
   67        0.0000000000
   68       -0.0000000000
 Ene=          0.01120460
 Spin= Alpha
 Occup=        0.00000000
    1       -0.0000000000
    2        0.0000000000
    3       -0.0000000000
    4       -0.0000000000
    5        0.0000000000
    6       -0.0000000000
    7        0.0000000000
    8       -0.0000000000
    9        0.0000000000
   10        0.0000000000
   11        0.0000000000
   12       -0.0417476800
   13        0.0300912500
   14       -0.0000000000
   15        0.1526751900
   16       -0.1100465400
   17       -0.0000000000
   18       -0.7101355800
   19        0.5118576400
   20       -0.0000000000
   21        0.7359578100
   22       -0.5304700100
   23        0.0000000000
   24       -0.0000000000
   25       -0.0000000000
   26       -0.0245797800
   27        0.0177168300
   28        0.0000000000
   29       -0.0000000000
   30       -0.0000000000
   31       -0.0000000000
   32       -0.0233111100
   33        0.0168023800
   34        0.0000000000
   35       -0.0000000000
   36        0.0000000000
   37        0.0000000000
   38       -0.0000000000
   39        0.0000000000
   40       -0.0000000000
   41        0.0000000000
   42       -0.0000000000
   43       -0.0000000000
   44       -0.0000000000
   45       -0.0000000000
   46       -0.0417476800
   47        0.0300912500
   48        0.0000000000
   49        0.1526751900
   50       -0.1100465400
   51       -0.0000000000
   52       -0.7101355800
   53        0.5118576400
   54       -0.0000000000
   55        0.7359578100
   56       -0.5304700100
   57        0.0000000000
   58       -0.0000000000
   59       -0.0000000000
   60        0.0245797800
   61       -0.0177168300
   62       -0.0000000000
   63       -0.0000000000
   64       -0.0000000000
   65       -0.0000000000
   66        0.0233111100
   67       -0.0168023800
   68        0.0000000000
 Ene=          0.01120460
 Spin= Alpha
 Occup=        0.00000000
    1       -0.0000000000
    2        0.0000000000
    3        0.0000000000
    4        0.0000000000
    5        0.0000000000
    6        0.0000000000
    7        0.0000000000
    8       -0.0000000000
    9       -0.0000000000
   10       -0.0000000000
   11        0.0000000000
   12        0.0300912500
   13        0.0417476800
   14       -0.0000000000
   15       -0.1100465400
   16       -0.1526751900
   17        0.0000000000
   18        0.5118576400
   19        0.7101355800
   20        0.0000000000
   21       -0.5304700100
   22       -0.7359578100
   23        0.0000000000
   24        0.0000000000
   25        0.0000000000
   26        0.0177168300
   27        0.0245797800
   28        0.0000000000
   29        0.0000000000
   30        0.0000000000
   31        0.0000000000
   32        0.0168023800
   33        0.0233111100
   34       -0.0000000000
   35       -0.0000000000
   36        0.0000000000
   37       -0.0000000000
   38       -0.0000000000
   39       -0.0000000000
   40       -0.0000000000
   41       -0.0000000000
   42        0.0000000000
   43        0.0000000000
   44        0.0000000000
   45       -0.0000000000
   46        0.0300912500
   47        0.0417476800
   48        0.0000000000
   49       -0.1100465400
   50       -0.1526751900
   51        0.0000000000
   52        0.5118576400
   53        0.7101355800
   54        0.0000000000
   55       -0.5304700100
   56       -0.7359578100
   57        0.0000000000
   58       -0.0000000000
   59       -0.0000000000
   60       -0.0177168300
   61       -0.0245797800
   62       -0.0000000000
   63       -0.0000000000
   64       -0.0000000000
   65       -0.0000000000
   66       -0.0168023800
   67       -0.0233111100
   68       -0.0000000000
 Ene=          0.01126150
 Spin= Alpha
 Occup=        0.00000000
    1       -0.0132671700
    2        0.0249270200
    3        6.0243636200
    4        0.1738955700
    5        0.0237241700
    6        0.0638378500
    7        0.0149639500
    8       -0.0162091700
    9       -0.0018451100
   10        0.0001178500
   11        0.0905369700
   12        0.0000000000
   13        0.0000000000
   14       -0.0699127600
   15       -0.0000000000
   16       -0.0000000000
   17        2.0927390500
   18       -0.0000000000
   19       -0.0000000000
   20        1.5508286600
   21        0.0000000000
   22        0.0000000000
   23        0.0608679000
   24        0.1880247000
   25        0.1880247000
   26        0.0000000000
   27        0.0000000000
   28        0.0000000000
   29        0.2186771700
   30        0.0175994500
   31        0.0175994500
   32       -0.0000000000
   33       -0.0000000000
   34       -0.0000000000
   35        0.0132671700
   36       -0.0249270200
   37       -6.0243636200
   38       -0.1738955700
   39       -0.0237241700
   40       -0.0638378500
   41       -0.0149639500
   42        0.0162091700
   43        0.0018451100
   44       -0.0001178500
   45        0.0905369700
   46       -0.0000000000
   47       -0.0000000000
   48       -0.0699127600
   49        0.0000000000
   50        0.0000000000
   51        2.0927390500
   52       -0.0000000000
   53       -0.0000000000
   54        1.5508286600
   55        0.0000000000
   56        0.0000000000
   57       -0.0608679000
   58       -0.1880247000
   59       -0.1880247000
   60        0.0000000000
   61        0.0000000000
   62       -0.0000000000
   63       -0.2186771700
   64       -0.0175994500
   65       -0.0175994500
   66       -0.0000000000
   67        0.0000000000
   68       -0.0000000000
 Ene=          0.01252610
 Spin= Alpha
 Occup=        0.00000000
    1       -0.6704484500
    2        0.7048440000
    3        0.0513013600
    4       -1.5670142400
    5        1.1758253600
    6       -0.0676496700
    7        0.1401051800
    8       -0.0828367500
    9       -0.0006625300
   10       -0.0006474500
   11        4.0593433200
   12        0.0000000000
   13        0.0000000000
   14       -0.7544852100
   15       -0.0000000000
   16       -0.0000000000
   17        0.6813643300
   18        0.0000000000
   19        0.0000000000
   20       -0.2798107700
   21       -0.0000000000
   22       -0.0000000000
   23        0.8971466200
   24       -0.0623866400
   25       -0.0623866400
   26        0.0000000000
   27        0.0000000000
   28        0.0000000000
   29       -0.4504130500
   30       -0.2191720800
   31       -0.2191720800
   32       -0.0000000000
   33       -0.0000000000
   34       -0.0000000000
   35       -0.6704484500
   36        0.7048440000
   37        0.0513013600
   38       -1.5670142400
   39        1.1758253600
   40       -0.0676496700
   41        0.1401051800
   42       -0.0828367500
   43       -0.0006625300
   44       -0.0006474500
   45       -4.0593433200
   46       -0.0000000000
   47       -0.0000000000
   48        0.7544852100
   49        0.0000000000
   50        0.0000000000
   51       -0.6813643300
   52       -0.0000000000
   53       -0.0000000000
   54        0.2798107700
   55        0.0000000000
   56        0.0000000000
   57        0.8971466200
   58       -0.0623866400
   59       -0.0623866400
   60        0.0000000000
   61        0.0000000000
   62       -0.0000000000
   63       -0.4504130500
   64       -0.2191720800
   65       -0.2191720800
   66       -0.0000000000
   67       -0.0000000000
   68        0.0000000000
 Ene=          0.01667050
 Spin= Alpha
 Occup=        0.00000000
    1       -0.0000000000
    2        0.0000000000
    3        0.0000000000
    4       -0.0000000000
    5        0.0000000000
    6       -0.0000000000
    7        0.0000000000
    8       -0.0000000000
    9        0.0000000000
   10       -0.0000000000
   11       -0.0000000000
   12       17.2270338400
   13       -4.6908187500
   14        0.0000000000
   15       -3.6613345500
   16        0.9969596000
   17        0.0000000000
   18        2.0224634500
   19       -0.5507047600
   20       -0.0000000000
   21       -0.9940420400
   22        0.2706717300
   23        0.0000000000
   24        0.0000000000
   25        0.0000000000
   26        2.3154535300
   27       -0.6304842100
   28        0.0000000000
   29        0.0000000000
   30        0.0000000000
   31        0.0000000000
   32       -0.6998022700
   33        0.1905519900
   34       -0.0000000000
   35        0.0000000000
   36       -0.0000000000
   37       -0.0000000000
   38        0.0000000000
   39       -0.0000000000
   40        0.0000000000
   41       -0.0000000000
   42        0.0000000000
   43       -0.0000000000
   44        0.0000000000
   45       -0.0000000000
   46      -17.2270338400
   47        4.6908187500
   48        0.0000000000
   49        3.6613345500
   50       -0.9969596000
   51        0.0000000000
   52       -2.0224634500
   53        0.5507047600
   54       -0.0000000000
   55        0.9940420400
   56       -0.2706717300
   57        0.0000000000
   58       -0.0000000000
   59       -0.0000000000
   60        2.3154535300
   61       -0.6304842100
   62       -0.0000000000
   63       -0.0000000000
   64       -0.0000000000
   65       -0.0000000000
   66       -0.6998022700
   67        0.1905519900
   68        0.0000000000
 Ene=          0.01667050
 Spin= Alpha
 Occup=        0.00000000
    1       -0.0000000000
    2       -0.0000000000
    3       -0.0000000000
    4        0.0000000000
    5       -0.0000000000
    6        0.0000000000
    7       -0.0000000000
    8        0.0000000000
    9       -0.0000000000
   10        0.0000000000
   11        0.0000000000
   12        4.6908187500
   13       17.2270338400
   14       -0.0000000000
   15       -0.9969596000
   16       -3.6613345500
   17       -0.0000000000
   18        0.5507047600
   19        2.0224634500
   20        0.0000000000
   21       -0.2706717300
   22       -0.9940420400
   23        0.0000000000
   24       -0.0000000000
   25       -0.0000000000
   26        0.6304842100
   27        2.3154535300
   28       -0.0000000000
   29       -0.0000000000
   30       -0.0000000000
   31       -0.0000000000
   32       -0.1905519900
   33       -0.6998022700
   34        0.0000000000
   35        0.0000000000
   36        0.0000000000
   37        0.0000000000
   38       -0.0000000000
   39        0.0000000000
   40       -0.0000000000
   41        0.0000000000
   42       -0.0000000000
   43        0.0000000000
   44       -0.0000000000
   45       -0.0000000000
   46       -4.6908187500
   47      -17.2270338400
   48       -0.0000000000
   49        0.9969596000
   50        3.6613345500
   51       -0.0000000000
   52       -0.5507047600
   53       -2.0224634500
   54        0.0000000000
   55        0.2706717300
   56        0.9940420400
   57        0.0000000000
   58       -0.0000000000
   59       -0.0000000000
   60        0.6304842100
   61        2.3154535300
   62        0.0000000000
   63        0.0000000000
   64       -0.0000000000
   65       -0.0000000000
   66       -0.1905519900
   67       -0.6998022700
   68       -0.0000000000
 Ene=          0.01687970
 Spin= Alpha
 Occup=        0.00000000
    1       -0.0124548200
    2       -0.0193534900
    3        4.5179355600
    4       -3.3414804200
    5        1.4242994100
    6       -0.1247834700
    7        0.1224503400
    8       -0.0663727200
    9        0.0007064400
   10       -0.0006961800
   11        0.0824797400
   12        0.0000000000
   13        0.0000000000
   14        0.0908937600
   15        0.0000000000
   16       -0.0000000000