[Molden Format]
[Atoms] AU
BE       1       4     0.00000000     0.00000000     0.00000000
[GTO]
  1 0
s  6 1.00
   1.6828000000E+03   2.2857400000E-03
   2.5171500000E+02   1.7593800000E-02
   5.7411600000E+01   8.6331500000E-02
   1.6517100000E+01   2.8183500000E-01
   4.8536400000E+00   6.4059400000E-01
   6.2686300000E-01   1.4446700000E-01
s  3 1.00
   8.3093800000E+00   1.0862100000E-01
   1.7407500000E+00   9.2730100000E-01
   4.8581600000E-01  -2.9716900000E-03
p  3 1.00
   8.3093800000E+00   3.6134400000E-02
   1.7407500000E+00   2.1695800000E-01
   4.8581600000E-01   8.4183900000E-01
s  1 1.00
   1.6361300000E-01   1.0000000000E+00
p  1 1.00
   1.6361300000E-01   1.0000000000E+00
s  1 1.00
   5.6728500000E-02   1.0000000000E+00
p  1 1.00
   5.6728500000E-02   1.0000000000E+00
s  1 1.00
   2.0700000000E-02   1.0000000000E+00
p  1 1.00
   2.0700000000E-02   1.0000000000E+00
d  1 1.00
   2.5500000000E-01   1.0000000000E+00
 
 
[MO]
Ene=    -4.74176E+00
Spin= Alpha
Occup=   2.0000000000
   1       0.59628021
   2       0.44644312
   3      -0.00000000
   4      -0.00000000
   5      -0.00000000
   6      -0.00488928
   7      -0.00000000
   8       0.00000000
   9       0.00000000
  10       0.00142518
  11      -0.00000000
  12      -0.00000000
  13      -0.00000000
  14      -0.00042892
  15      -0.00000000
  16       0.00000000
  17       0.00000000
  18       0.00067091
  19       0.00067091
  20       0.00067091
  21       0.00000000
  22       0.00000000
  23      -0.00000000
Ene=    -3.18670E-01
Spin= Alpha
Occup=   2.0000000000
   1       0.10958605
   2       0.18569389
   3       0.00000000
   4       0.00000000
   5       0.00000000
   6      -0.58399882
   7       0.00000000
   8       0.00000000
   9      -0.00000000
  10      -0.50013367
  11       0.00000000
  12       0.00000000
  13       0.00000000
  14      -0.02234152
  15       0.00000000
  16       0.00000000
  17      -0.00000000
  18       0.00177251
  19       0.00177251
  20       0.00177251
  21      -0.00000000
  22      -0.00000000
  23       0.00000000
Ene=     2.01577E-02
Spin= Alpha
Occup=   0.0000000000
   1      -0.00000000
   2      -0.00000000
   3       0.01944477
   4       0.07343392
   5      -0.00154675
   6       0.00000000
   7       0.05103010
   8       0.19271712
   9      -0.00405923
  10       0.00000000
  11       0.00052806
  12       0.00199425
  13      -0.00004201
  14      -0.00000000
  15       0.22977101
  16       0.86773898
  17      -0.01827733
  18      -0.00000000
  19       0.00000000
  20      -0.00000000
  21       0.00000000
  22       0.00000000
  23      -0.00000000
Ene=     2.01577E-02
Spin= Alpha
Occup=   0.0000000000
   1       0.00000000
   2       0.00000000
   3      -0.00569198
   4       0.00310175
   5       0.07570346
   6      -0.00000000
   7      -0.01493780
   8       0.00814011
   9       0.19867320
  10      -0.00000000
  11      -0.00015458
  12       0.00008423
  13       0.00205589
  14       0.00000000
  15      -0.06725977
  16       0.03665210
  17       0.89455713
  18       0.00000000
  19       0.00000000
  20       0.00000000
  21       0.00000000
  22       0.00000000
  23       0.00000000
Ene=     2.01577E-02
Spin= Alpha
Occup=   0.0000000000
   1      -0.00000000
   2      -0.00000000
   3      -0.07322933
   4       0.01925801
   5      -0.00629500
   6       0.00000000
   7      -0.19218020
   8       0.05053996
   9      -0.01652035
  10       0.00000000
  11      -0.00198870
  12       0.00052299
  13      -0.00017095
  14      -0.00000000
  15      -0.86532139
  16       0.22756406
  17      -0.07438544
  18      -0.00000000
  19       0.00000000
  20      -0.00000000
  21      -0.00000000
  22      -0.00000000
  23       0.00000000
Ene=     4.16891E-02
Spin= Alpha
Occup=   0.0000000000
   1       0.03070814
   2       0.06677058
   3       0.00000000
   4       0.00000000
   5      -0.00000000
   6      -0.01238669
   7      -0.00000000
   8      -0.00000000
   9      -0.00000000
  10      -1.48549577
  11      -0.00000000
  12       0.00000000
  13      -0.00000000
  14       1.84935924
  15      -0.00000000
  16      -0.00000000
  17      -0.00000000
  18       0.04913007
  19       0.04913007
  20       0.04913007
  21       0.00000000
  22      -0.00000000
  23      -0.00000000
Ene=     8.86208E-02
Spin= Alpha
Occup=   0.0000000000
   1       0.00000000
   2       0.00000000
   3       0.01202718
   4      -0.00121068
   5       0.17329202
   6       0.00000000
   7       0.00634894
   8      -0.00063910
   9       0.09147785
  10      -0.00000000
  11       0.08615167
  12      -0.00867223
  13       1.24130479
  14       0.00000000
  15      -0.08048028
  16       0.00810133
  17      -1.15958943
  18       0.00000000
  19       0.00000000
  20       0.00000000
  21      -0.00000000
  22       0.00000000
  23      -0.00000000
Ene=     8.86208E-02
Spin= Alpha
Occup=   0.0000000000
   1      -0.00000000
   2      -0.00000000
   3      -0.16208536
   4      -0.06154280
   5       0.01081943
   6       0.00000000
   7      -0.08556206
   8      -0.03248738
   9       0.00571139
  10      -0.00000000
  11      -1.16103063
  12      -0.44083608
  13       0.07750046
  14       0.00000000
  15       1.08459973
  16       0.41181575
  17      -0.07239859
  18       0.00000000
  19      -0.00000000
  20       0.00000000
  21       0.00000000
  22      -0.00000000
  23       0.00000000
Ene=     8.86208E-02
Spin= Alpha
Occup=   0.0000000000
   1      -0.00000000
   2      -0.00000000
   3       0.06131821
   4      -0.16244156
   5      -0.00539062
   6      -0.00000000
   7       0.03236882
   8      -0.08575008
   9      -0.00284561
  10       0.00000000
  11       0.43922735
  12      -1.16358208
  13      -0.03861341
  14      -0.00000000
  15      -0.41031292
  16       1.08698321
  17       0.03607148
  18      -0.00000000
  19       0.00000000
  20      -0.00000000
  21       0.00000000
  22      -0.00000000
  23      -0.00000000
Ene=     3.11795E-01
Spin= Alpha
Occup=   0.0000000000
   1      -0.10082004
   2      -0.12068364
   3       0.00000000
   4       0.00000000
   5      -0.00000000
   6       1.78312984
   7       0.00000000
   8       0.00000000
   9      -0.00000000
  10      -3.26832301
  11      -0.00000000
  12      -0.00000000
  13       0.00000000
  14       1.32222942
  15       0.00000000
  16       0.00000000
  17      -0.00000000
  18       0.26061047
  19       0.26061047
  20       0.26061047
  21       0.00000000
  22       0.00000000
  23      -0.00000000
Ene=     3.36395E-01
Spin= Alpha
Occup=   0.0000000000
   1       0.00000000
   2       0.00000000
   3      -0.00091334
   4       0.00750649
   5      -0.19198684
   6      -0.00000000
   7      -0.00631398
   8       0.05189294
   9      -1.32721928
  10       0.00000000
  11       0.00857973
  12      -0.07051447
  13       1.80348562
  14      -0.00000000
  15      -0.00356746
  16       0.02932001
  17      -0.74989170
  18      -0.00000000
  19      -0.00000000
  20      -0.00000000
  21      -0.00000000
  22       0.00000000
  23      -0.00000000
Ene=     3.36395E-01
Spin= Alpha
Occup=   0.0000000000
   1       0.00000000
   2       0.00000000
   3      -0.02342691
   4      -0.19056087
   5      -0.00733929
   6      -0.00000000
   7      -0.16195194
   8      -1.31736141
   9      -0.05073705
  10       0.00000000
  11       0.22006762
  12       1.79009030
  13       0.06894380
  14      -0.00000000
  15      -0.09150441
  16      -0.74432191
  17      -0.02866692
  18       0.00000000
  19      -0.00000000
  20      -0.00000000
  21      -0.00000000
  22       0.00000000
  23      -0.00000000
Ene=     3.36395E-01
Spin= Alpha
Occup=   0.0000000000
   1      -0.00000000
   2      -0.00000000
   3      -0.19069996
   4       0.02337387
   5       0.00182111
   6       0.00000000
   7      -1.31832298
   8       0.16158528
   9       0.01258948
  10      -0.00000000
  11       1.79139692
  12      -0.21956939
  13      -0.01710716
  14       0.00000000
  15      -0.74486520
  16       0.09129724
  17       0.00711318
  18       0.00000000
  19      -0.00000000
  20       0.00000000
  21      -0.00000000
  22       0.00000000
  23      -0.00000000
Ene=     6.83440E-01
Spin= Alpha
Occup=   0.0000000000
   1      -0.00000000
   2       0.00000000
   3       0.00000000
   4       0.00000000
   5       0.00000000
   6      -0.00000000
   7      -0.00000000
   8      -0.00000000
   9      -0.00000000
  10      -0.00000000
  11       0.00000000
  12       0.00000000
  13       0.00000000
  14       0.00000000
  15      -0.00000000
  16      -0.00000000
  17      -0.00000000
  18      -0.36903815
  19       0.34254276
  20       0.02649539
  21      -0.07287365
  22      -0.18982763
  23       0.88835265
Ene=     6.83440E-01
Spin= Alpha
Occup=   0.0000000000
   1       0.00000000
   2       0.00000000
   3      -0.00000000
   4      -0.00000000
   5       0.00000000
   6      -0.00000000
   7       0.00000000
   8       0.00000000
   9       0.00000000
  10       0.00000000
  11      -0.00000000
  12      -0.00000000
  13      -0.00000000
  14      -0.00000000
  15       0.00000000
  16       0.00000000
  17       0.00000000
  18      -0.79868407
  19       0.77647402
  20       0.02221005
  21      -0.00885503
  22       0.13115311
  23      -0.39393674
Ene=     6.83440E-01
Spin= Alpha
Occup=   0.0000000000
   1       0.00000000
   2      -0.00000000
   3       0.00000000
   4       0.00000000
   5      -0.00000000
   6       0.00000000
   7      -0.00000000
   8      -0.00000000
   9       0.00000000
  10      -0.00000000
  11       0.00000000
  12      -0.00000000
  13      -0.00000000
  14       0.00000000
  15      -0.00000000
  16       0.00000000
  17       0.00000000
  18       0.05430101
  19      -0.01294821
  20      -0.04135281
  21       0.04377700
  22       0.97051051
  23       0.23016383
Ene=     6.83440E-01
Spin= Alpha
Occup=   0.0000000000
   1      -0.00000000
   2      -0.00000000
   3       0.00000000
   4      -0.00000000
   5      -0.00000000
   6       0.00000000
   7       0.00000000
   8       0.00000000
   9       0.00000000
  10      -0.00000000
  11      -0.00000000
  12      -0.00000000
  13      -0.00000000
  14       0.00000000
  15       0.00000000
  16       0.00000000
  17       0.00000000
  18       0.03856680
  19      -0.03017950
  20      -0.00838730
  21      -0.99633077
  22       0.05517124
  23      -0.05133640
Ene=     6.83440E-01
Spin= Alpha
Occup=   0.0000000000
   1      -0.00000000
   2      -0.00000000
   3      -0.00000000
   4       0.00000000
   5       0.00000000
   6       0.00000000
   7      -0.00000000
   8      -0.00000000
   9      -0.00000000
  10      -0.00000000
  11       0.00000000
  12       0.00000000
  13       0.00000000
  14       0.00000000
  15      -0.00000000
  16      -0.00000000
  17      -0.00000000
  18       0.47061513
  19       0.52789591
  20      -0.99851104
  21       0.00442532
  22      -0.04277641
  23       0.00570905
Ene=     1.18938E+00
Spin= Alpha
Occup=   0.0000000000
   1      -0.00000000
   2       0.00000000
   3       0.93286326
   4       1.05849136
   5      -0.07502952
   6      -0.00000000
   7      -1.13854309
   8      -1.29186995
   9       0.09157220
  10      -0.00000000
  11       0.70122454
  12       0.79565799
  13      -0.05639898
  14       0.00000000
  15      -0.24337813
  16      -0.27615370
  17       0.01957473
  18      -0.00000000
  19       0.00000000
  20       0.00000000
  21      -0.00000000
  22      -0.00000000
  23      -0.00000000
Ene=     1.18938E+00
Spin= Alpha
Occup=   0.0000000000
   1      -0.00000000
   2      -0.00000000
   3       0.05574721
   4       0.05087696
   5       1.41087598
   6      -0.00000000
   7      -0.06803848
   8      -0.06209443
   9      -1.72194914
  10       0.00000000
  11       0.04190465
  12       0.03824373
  13       1.06054220
  14      -0.00000000
  15      -0.01454409
  16      -0.01327348
  17      -0.36808862
  18       0.00000000
  19      -0.00000000
  20      -0.00000000
  21       0.00000000
  22       0.00000000
  23      -0.00000000
Ene=     1.18938E+00
Spin= Alpha
Occup=   0.0000000000
   1       0.00000000
   2      -0.00000000
   3       1.05968186
   4      -0.93449175
   5      -0.00817238
   6       0.00000000
   7      -1.29332293
   8       1.14053063
   9       0.00997424
  10      -0.00000000
  11       0.79655288
  12      -0.70244866
  13      -0.00614310
  14      -0.00000000
  15      -0.27646429
  16       0.24380299
  17       0.00213212
  18      -0.00000000
  19       0.00000000
  20       0.00000000
  21       0.00000000
  22       0.00000000
  23      -0.00000000
Ene=     1.40533E+00
Spin= Alpha
Occup=   0.0000000000
   1       0.16627304
   2       0.73292968
   3       0.00000000
   4       0.00000000
   5       0.00000000
   6      -2.90078045
   7      -0.00000000
   8      -0.00000000
   9      -0.00000000
  10      -1.40631690
  11       0.00000000
  12       0.00000000
  13       0.00000000
  14       0.49756962
  15      -0.00000000
  16      -0.00000000
  17      -0.00000000
  18       1.67795273
  19       1.67795273
  20       1.67795273
  21       0.00000000
  22      -0.00000000
  23       0.00000000
Ene=     1.00572E+01
Spin= Alpha
Occup=   0.0000000000
   1      -1.91977757
   2       2.57089915
   3       0.00000000
   4      -0.00000000
   5       0.00000000
   6      -2.02848752
   7       0.00000000
   8       0.00000000
   9      -0.00000000
  10      -0.37717305
  11       0.00000000
  12      -0.00000000
  13       0.00000000
  14       0.14899613
  15       0.00000000
  16       0.00000000
  17      -0.00000000
  18       0.87435188
  19       0.87435188
  20       0.87435188
  21      -0.00000000
  22       0.00000000
  23       0.00000000
