[Molden Format]
[Atoms] AU
E+       1       4     0.00000000     0.00000000     0.00000000
[GTO]
  1 0
s  1 1.00
   1.0000000000E-04   1.0000000000E+00
s  1 1.00
   3.0000000000E-04   1.0000000000E+00
s  1 1.00
   9.0000000000E-04   1.0000000000E+00
s  1 1.00
   2.7000000000E-03   1.0000000000E+00
s  1 1.00
   8.1000000000E-03   1.0000000000E+00
s  1 1.00
   2.4300000000E-02   1.0000000000E+00
s  1 1.00
   7.2900000000E-02   1.0000000000E+00
s  1 1.00
   2.1870000000E-01   1.0000000000E+00
s  1 1.00
   6.5610000000E-01   1.0000000000E+00
s  1 1.00
   1.9683000000E+00   1.0000000000E+00
p  1 1.00
   1.0000000000E-04   1.0000000000E+00
p  1 1.00
   3.0000000000E-04   1.0000000000E+00
p  1 1.00
   9.0000000000E-04   1.0000000000E+00
p  1 1.00
   2.7000000000E-03   1.0000000000E+00
d  1 1.00
   1.0000000000E-04   1.0000000000E+00
d  1 1.00
   3.0000000000E-04   1.0000000000E+00
 
 
[MO]
Ene=     7.54590E-05
Spin= Alpha
Occup=   1.0000000000
   1      -1.93215088
   2       0.70210487
   3       0.19394611
   4      -0.03837293
   5       0.00805926
   6      -0.00387772
   7      -0.00006436
   8      -0.00054679
   9       0.00005255
  10      -0.00002236
  11      -0.00000000
  12      -0.00000000
  13      -0.00000000
  14       0.00000000
  15      -0.00000000
  16      -0.00000000
  17      -0.00000000
  18       0.00000000
  19      -0.00000000
  20       0.00000000
  21      -0.00000000
  22      -0.00000000
  23       0.78208998
  24       0.78208998
  25       0.78208998
  26      -0.00000000
  27       0.00000000
  28       0.00000000
  29       0.36351454
  30       0.36351454
  31       0.36351454
  32      -0.00000000
  33       0.00000000
  34       0.00000000
Ene=     2.25594E-04
Spin= Alpha
Occup=   0.0000000000
   1       0.00000000
   2      -0.00000000
   3      -0.00000000
   4       0.00000000
   5      -0.00000000
   6      -0.00000000
   7      -0.00000000
   8       0.00000000
   9      -0.00000000
  10       0.00000000
  11       0.00364128
  12       0.00368551
  13      -1.18701352
  14      -0.00099001
  15      -0.00100203
  16       0.32273060
  17       0.00024573
  18       0.00024872
  19      -0.08010656
  20      -0.00004730
  21      -0.00004788
  22       0.01542069
  23      -0.00000000
  24       0.00000000
  25       0.00000000
  26      -0.00000000
  27       0.00000000
  28      -0.00000000
  29       0.00000000
  30      -0.00000000
  31      -0.00000000
  32       0.00000000
  33      -0.00000000
  34       0.00000000
Ene=     2.25594E-04
Spin= Alpha
Occup=   0.0000000000
   1       0.00000000
   2      -0.00000000
   3      -0.00000000
   4      -0.00000000
   5       0.00000000
   6       0.00000000
   7       0.00000000
   8      -0.00000000
   9      -0.00000000
  10       0.00000000
  11      -0.00622207
  12      -1.18700274
  13      -0.00370456
  14       0.00169168
  15       0.32272767
  16       0.00100721
  17      -0.00041990
  18      -0.08010583
  19      -0.00025001
  20       0.00008083
  21       0.01542055
  22       0.00004813
  23       0.00000000
  24      -0.00000000
  25      -0.00000000
  26      -0.00000000
  27      -0.00000000
  28       0.00000000
  29      -0.00000000
  30       0.00000000
  31      -0.00000000
  32       0.00000000
  33      -0.00000000
  34      -0.00000000
Ene=     2.25594E-04
Spin= Alpha
Occup=   0.0000000000
   1      -0.00000000
   2       0.00000000
   3       0.00000000
   4       0.00000000
   5      -0.00000000
   6       0.00000000
   7      -0.00000000
   8       0.00000000
   9      -0.00000000
  10       0.00000000
  11       1.18700293
  12      -0.00623337
  13       0.00362189
  14      -0.32272772
  15       0.00169476
  16      -0.00098474
  17       0.08010584
  18      -0.00042066
  19       0.00024443
  20      -0.01542056
  21       0.00008098
  22      -0.00004705
  23       0.00000000
  24      -0.00000000
  25       0.00000000
  26      -0.00000000
  27       0.00000000
  28       0.00000000
  29       0.00000000
  30       0.00000000
  31       0.00000000
  32       0.00000000
  33      -0.00000000
  34      -0.00000000
Ene=     3.19489E-04
Spin= Alpha
Occup=   0.0000000000
   1      -6.41793877
   2       1.65950540
   3       0.45867036
   4      -0.07789475
   5       0.02484196
   6      -0.00374521
   7       0.00369552
   8       0.00016761
   9       0.00015215
  10       0.00000042
  11      -0.00000000
  12      -0.00000000
  13      -0.00000000
  14      -0.00000000
  15       0.00000000
  16       0.00000000
  17       0.00000000
  18      -0.00000000
  19      -0.00000000
  20      -0.00000000
  21       0.00000000
  22       0.00000000
  23       1.47719614
  24       1.47719614
  25       1.47719614
  26       0.00000000
  27      -0.00000000
  28      -0.00000000
  29       0.84888536
  30       0.84888536
  31       0.84888536
  32      -0.00000000
  33       0.00000000
  34       0.00000000
Ene=     3.30850E-04
Spin= Alpha
Occup=   0.0000000000
   1      -0.00000000
   2       0.00000000
   3       0.00000000
   4      -0.00000000
   5       0.00000000
   6      -0.00000000
   7       0.00000000
   8       0.00000000
   9       0.00000000
  10       0.00000000
  11       0.00000000
  12       0.00000000
  13       0.00000000
  14      -0.00000000
  15      -0.00000000
  16      -0.00000000
  17      -0.00000000
  18       0.00000000
  19       0.00000000
  20      -0.00000000
  21      -0.00000000
  22       0.00000000
  23      -0.68361720
  24       1.07069632
  25      -0.38707912
  26      -0.01445073
  27       0.04646691
  28       0.16637767
  29       0.11155477
  30      -0.17471954
  31       0.06316477
  32       0.00235811
  33      -0.00758261
  34      -0.02715002
Ene=     3.30850E-04
Spin= Alpha
Occup=   0.0000000000
   1      -0.00000000
   2       0.00000000
   3       0.00000000
   4      -0.00000000
   5       0.00000000
   6      -0.00000000
   7       0.00000000
   8      -0.00000000
   9       0.00000000
  10      -0.00000000
  11      -0.00000000
  12       0.00000000
  13      -0.00000000
  14       0.00000000
  15      -0.00000000
  16      -0.00000000
  17      -0.00000000
  18       0.00000000
  19      -0.00000000
  20       0.00000000
  21      -0.00000000
  22       0.00000000
  23       0.24045485
  24      -0.13831508
  25      -0.10213976
  26      -0.02332461
  27       0.08648875
  28       1.06746084
  29      -0.03923817
  30       0.02257068
  31       0.01666748
  32       0.00380618
  33      -0.01411350
  34      -0.17419157
Ene=     3.30850E-04
Spin= Alpha
Occup=   0.0000000000
   1      -0.00000000
   2       0.00000000
   3       0.00000000
   4      -0.00000000
   5       0.00000000
   6      -0.00000000
   7       0.00000000
   8       0.00000000
   9       0.00000000
  10       0.00000000
  11       0.00000000
  12      -0.00000000
  13      -0.00000000
  14       0.00000000
  15       0.00000000
  16       0.00000000
  17       0.00000000
  18       0.00000000
  19       0.00000000
  20      -0.00000000
  21      -0.00000000
  22       0.00000000
  23       0.82496024
  24       0.19699521
  25      -1.02195545
  26       0.00201711
  27       0.00869896
  28      -0.17272049
  29      -0.13461957
  30      -0.03214629
  31       0.16676586
  32      -0.00032916
  33      -0.00141952
  34       0.02818506
Ene=     3.30850E-04
Spin= Alpha
Occup=   0.0000000000
   1      -0.00000000
   2       0.00000000
   3       0.00000000
   4      -0.00000000
   5       0.00000000
   6      -0.00000000
   7       0.00000000
   8      -0.00000000
   9       0.00000000
  10       0.00000000
  11      -0.00000000
  12       0.00000000
  13      -0.00000000
  14       0.00000000
  15      -0.00000000
  16       0.00000000
  17      -0.00000000
  18       0.00000000
  19      -0.00000000
  20       0.00000000
  21      -0.00000000
  22       0.00000000
  23      -0.00385403
  24       0.03681846
  25      -0.03296443
  26       0.07773075
  27      -1.09071428
  28       0.09172772
  29       0.00062891
  30      -0.00600815
  31       0.00537924
  32      -0.01268434
  33       0.17798613
  34      -0.01496841
Ene=     3.30850E-04
Spin= Alpha
Occup=   0.0000000000
   1      -0.00000000
   2       0.00000000
   3       0.00000000
   4      -0.00000000
   5       0.00000000
   6      -0.00000000
   7       0.00000000
   8       0.00000000
   9       0.00000000
  10       0.00000000
  11      -0.00000000
  12       0.00000000
  13       0.00000000
  14       0.00000000
  15       0.00000000
  16      -0.00000000
  17       0.00000000
  18       0.00000000
  19       0.00000000
  20       0.00000000
  21      -0.00000000
  22      -0.00000000
  23       0.00514601
  24      -0.00820747
  25       0.00306146
  26      -1.09496701
  27      -0.07986842
  28      -0.01874095
  29      -0.00083974
  30       0.00133932
  31      -0.00049958
  32       0.17868011
  33       0.01303318
  34       0.00305821
Ene=     8.14870E-04
Spin= Alpha
Occup=   0.0000000000
   1      -9.95441868
   2       3.47484058
   3       0.93557663
   4      -0.17594717
   5       0.03693496
   6      -0.01655781
   7       0.00024585
   8      -0.00222240
   9       0.00023664
  10      -0.00009171
  11       0.00000000
  12      -0.00000000
  13       0.00000000
  14      -0.00000000
  15       0.00000000
  16      -0.00000000
  17       0.00000000
  18      -0.00000000
  19       0.00000000
  20      -0.00000000
  21       0.00000000
  22      -0.00000000
  23       1.71886179
  24       1.71886179
  25       1.71886179
  26      -0.00000000
  27       0.00000000
  28      -0.00000000
  29       1.85141961
  30       1.85141961
  31       1.85141961
  32       0.00000000
  33      -0.00000000
  34       0.00000000
Ene=     9.36727E-04
Spin= Alpha
Occup=   0.0000000000
   1      -0.00000000
   2       0.00000000
   3       0.00000000
   4      -0.00000000
   5       0.00000000
   6      -0.00000000
   7       0.00000000
   8      -0.00000000
   9       0.00000000
  10      -0.00000000
  11       0.00384623
  12       0.00303891
  13      -0.87950565
  14      -0.00721536
  15      -0.00570087
  16       1.64991370
  17       0.00145187
  18       0.00114713
  19      -0.33199520
  20      -0.00025471
  21      -0.00020124
  22       0.05824278
  23       0.00000000
  24       0.00000000
  25       0.00000000
  26      -0.00000000
  27       0.00000000
  28       0.00000000
  29       0.00000000
  30       0.00000000
  31       0.00000000
  32       0.00000000
  33       0.00000000
  34      -0.00000000
Ene=     9.36727E-04
Spin= Alpha
Occup=   0.0000000000
   1      -0.00000000
   2       0.00000000
   3       0.00000000
   4      -0.00000000
   5       0.00000000
   6      -0.00000000
   7      -0.00000000
   8       0.00000000
   9      -0.00000000
  10       0.00000000
  11      -0.00255018
  12       0.87951040
  13       0.00302778
  14       0.00478403
  15      -1.64992261
  16      -0.00567998
  17      -0.00096264
  18       0.33199700
  19       0.00114292
  20       0.00016888
  21      -0.05824310
  22      -0.00020051
  23       0.00000000
  24       0.00000000
  25      -0.00000000
  26       0.00000000
  27      -0.00000000
  28       0.00000000
  29       0.00000000
  30      -0.00000000
  31       0.00000000
  32      -0.00000000
  33       0.00000000
  34      -0.00000000
Ene=     9.36727E-04
Spin= Alpha
Occup=   0.0000000000
   1      -0.00000000
   2       0.00000000
   3       0.00000000
   4      -0.00000000
   5       0.00000000
   6      -0.00000000
   7      -0.00000000
   8       0.00000000
   9      -0.00000000
  10       0.00000000
  11      -0.87950720
  12      -0.00253690
  13      -0.00385500
  14       1.64991661
  15       0.00475911
  16       0.00723182
  17      -0.33199579
  18      -0.00095763
  19      -0.00145518
  20       0.05824288
  21       0.00016800
  22       0.00025529
  23      -0.00000000
  24       0.00000000
  25       0.00000000
  26       0.00000000
  27      -0.00000000
  28      -0.00000000
  29       0.00000000
  30       0.00000000
  31       0.00000000
  32      -0.00000000
  33       0.00000000
  34       0.00000000
Ene=     1.27064E-03
Spin= Alpha
Occup=   0.0000000000
   1      -0.00000000
   2      -0.00000000
   3       0.00000000
   4      -0.00000000
   5       0.00000000
   6      -0.00000000
   7       0.00000000
   8      -0.00000000
   9       0.00000000
  10      -0.00000000
  11       0.00000000
  12       0.00000000
  13       0.00000000
  14      -0.00000000
  15      -0.00000000
  16      -0.00000000
  17       0.00000000
  18      -0.00000000
  19      -0.00000000
  20      -0.00000000
  21       0.00000000
  22       0.00000000
  23       0.28193368
  24      -0.38999008
  25       0.10805640
  26       0.02540820
  27      -0.08299540
  28      -0.44746746
  29      -0.57590452
  30       0.79663079
  31      -0.22072627
  32      -0.05190120
  33       0.16953430
  34       0.91403957
Ene=     1.27064E-03
Spin= Alpha
Occup=   0.0000000000
   1      -0.00000000
   2      -0.00000000
   3       0.00000000
   4      -0.00000000
   5       0.00000000
   6      -0.00000000
   7       0.00000000
   8       0.00000000
   9       0.00000000
  10       0.00000000
  11      -0.00000000
  12      -0.00000000
  13       0.00000000
  14       0.00000000
  15       0.00000000
  16      -0.00000000
  17      -0.00000000
  18       0.00000000
  19       0.00000000
  20      -0.00000000
  21       0.00000000
  22       0.00000000
  23       0.34282697
  24      -0.42792014
  25       0.08509317
  26      -0.00747366
  27       0.00098896
  28       0.40572929
  29      -0.70029095
  30       0.87411035
  31      -0.17381940
  32       0.01526642
  33      -0.00202015
  34      -0.82878120
Ene=     1.27064E-03
Spin= Alpha
Occup=   0.0000000000
   1      -0.00000000
   2       0.00000000
   3      -0.00000000
   4       0.00000000
   5      -0.00000000
   6       0.00000000
   7      -0.00000000
   8       0.00000000
   9       0.00000000
  10      -0.00000000
  11       0.00000000
  12      -0.00000000
  13      -0.00000000
  14       0.00000000
  15       0.00000000
  16       0.00000000
  17      -0.00000000
  18      -0.00000000
  19      -0.00000000
  20       0.00000000
  21      -0.00000000
  22       0.00000000
  23      -0.04526212
  24       0.05093120
  25      -0.00566908
  26       0.04374309
  27      -0.60063089
  28       0.06437026
  29       0.09245671
  30      -0.10403691
  31       0.01158021
  32      -0.08935380
  33       1.22690573
  34      -0.13148881
Ene=     1.27064E-03
Spin= Alpha
Occup=   0.0000000000
   1       0.00000000
   2      -0.00000000
   3       0.00000000
   4       0.00000000
   5       0.00000000
   6      -0.00000000
   7       0.00000000
   8       0.00000000
   9       0.00000000
  10       0.00000000
  11      -0.00000000
  12       0.00000000
  13       0.00000000
  14       0.00000000
  15      -0.00000000
  16      -0.00000000
  17       0.00000000
  18       0.00000000
  19      -0.00000000
  20      -0.00000000
  21       0.00000000
  22       0.00000000
  23       0.00584680
  24      -0.00673740
  25       0.00089060
  26      -0.60606196
  27      -0.04687705
  28      -0.01920494
  29      -0.01194323
  30       0.01376245
  31      -0.00181922
  32       1.23799977
  33       0.09575552
  34       0.03922983
Ene=     1.27064E-03
Spin= Alpha
Occup=   0.0000000000
   1       0.00000000
   2      -0.00000000
   3      -0.00000000
   4       0.00000000
   5      -0.00000000
   6       0.00000000
   7      -0.00000000
   8       0.00000000
   9      -0.00000000
  10       0.00000000
  11       0.00000000
  12       0.00000000
  13       0.00000000
  14      -0.00000000
  15      -0.00000000
  16      -0.00000000
  17       0.00000000
  18      -0.00000000
  19       0.00000000
  20      -0.00000000
  21       0.00000000
  22       0.00000000
  23       0.41331731
  24       0.17911919
  25      -0.59243650
  26       0.00223116
  27      -0.00931872
  28      -0.02398393
  29      -0.84428122
  30      -0.36588588
  31       1.21016710
  32      -0.00455758
  33       0.01903531
  34       0.04899186
Ene=     1.75892E-03
Spin= Alpha
Occup=   0.0000000000
   1      10.17286622
   2       0.25905072
   3      -2.05389593
   4       0.31872491
   5      -0.09449234
   6       0.01618213
   7      -0.01247875
   8      -0.00008444
   9      -0.00056058
  10       0.00001829
  11      -0.00000000
  12       0.00000000
  13       0.00000000
  14       0.00000000
  15      -0.00000000
  16      -0.00000000
  17      -0.00000000
  18       0.00000000
  19      -0.00000000
  20      -0.00000000
  21      -0.00000000
  22      -0.00000000
  23      -1.52682575
  24      -1.52682575
  25      -1.52682575
  26      -0.00000000
  27      -0.00000000
  28      -0.00000000
  29      -3.26385913
  30      -3.26385913
  31      -3.26385913
  32       0.00000000
  33       0.00000000
  34       0.00000000
Ene=     3.07868E-03
Spin= Alpha
Occup=   0.0000000000
   1      -0.00000000
   2      -0.00000000
   3       0.00000000
   4      -0.00000000
   5       0.00000000
   6      -0.00000000
   7      -0.00000000
   8       0.00000000
   9      -0.00000000
  10       0.00000000
  11      -0.00067844
  12       0.00272566
  13      -0.46724205
  14       0.00196144
  15      -0.00788021
  16       1.35085145
  17      -0.00253923
  18       0.01020152
  19      -1.74877893
  20       0.00036228
  21      -0.00145548
  22       0.24950367
  23       0.00000000
  24       0.00000000
  25       0.00000000
  26       0.00000000
  27       0.00000000
  28       0.00000000
  29       0.00000000
  30       0.00000000
  31       0.00000000
  32      -0.00000000
  33      -0.00000000
  34      -0.00000000
Ene=     3.07868E-03
Spin= Alpha
Occup=   0.0000000000
   1      -0.00000000
   2      -0.00000000
   3       0.00000000
   4      -0.00000000
   5       0.00000000
   6      -0.00000000
   7       0.00000000
   8      -0.00000000
   9       0.00000000
  10      -0.00000000
  11       0.00038425
  12       0.46724239
  13       0.00272511
  14      -0.00111091
  15      -1.35085242
  16      -0.00787860
  17       0.00143815
  18       1.74878020
  19       0.01019944
  20      -0.00020519
  21      -0.24950385
  22      -0.00145519
  23       0.00000000
  24       0.00000000
  25       0.00000000
  26      -0.00000000
  27       0.00000000
  28      -0.00000000
  29       0.00000000
  30       0.00000000
  31       0.00000000
  32       0.00000000
  33      -0.00000000
  34       0.00000000
Ene=     3.07868E-03
Spin= Alpha
Occup=   0.0000000000
   1       0.00000000
   2       0.00000000
   3      -0.00000000
   4       0.00000000
   5      -0.00000000
   6       0.00000000
   7      -0.00000000
   8       0.00000000
   9      -0.00000000
  10       0.00000000
  11       0.46724985
  12      -0.00038029
  13      -0.00068067
  14      -1.35087397
  15       0.00109945
  16       0.00196789
  17       1.74880810
  18      -0.00142332
  19      -0.00254758
  20      -0.24950783
  21       0.00020307
  22       0.00036347
  23      -0.00000000
  24       0.00000000
  25      -0.00000000
  26       0.00000000
  27      -0.00000000
  28       0.00000000
  29      -0.00000000
  30      -0.00000000
  31      -0.00000000
  32      -0.00000000
  33       0.00000000
  34      -0.00000000
Ene=     3.78363E-03
Spin= Alpha
Occup=   0.0000000000
   1      -7.70680187
   2      -4.92477930
   3       6.07864319
   4      -0.96988346
   5       0.19085564
   6      -0.07265097
   7       0.00608307
   8      -0.00857001
   9       0.00114231
  10      -0.00036145
  11       0.00000000
  12      -0.00000000
  13       0.00000000
  14      -0.00000000
  15       0.00000000
  16      -0.00000000
  17       0.00000000
  18      -0.00000000
  19       0.00000000
  20      -0.00000000
  21      -0.00000000
  22      -0.00000000
  23       1.09917508
  24       1.09917508
  25       1.09917508
  26       0.00000000
  27       0.00000000
  28       0.00000000
  29       3.41853036
  30       3.41853036
  31       3.41853036
  32      -0.00000000
  33      -0.00000000
  34      -0.00000000
Ene=     9.30412E-03
Spin= Alpha
Occup=   0.0000000000
   1       4.69878948
   2       4.43918805
   3      -6.61761473
   4       3.75151133
   5      -0.85605906
   6       0.16499246
   7      -0.07904730
   8       0.00718308
   9      -0.00425827
  10       0.00042738
  11       0.00000000
  12      -0.00000000
  13      -0.00000000
  14      -0.00000000
  15       0.00000000
  16       0.00000000
  17       0.00000000
  18      -0.00000000
  19      -0.00000000
  20      -0.00000000
  21       0.00000000
  22       0.00000000
  23      -0.66753309
  24      -0.66753309
  25      -0.66753309
  26      -0.00000000
  27      -0.00000000
  28       0.00000000
  29      -2.29445205
  30      -2.29445205
  31      -2.29445205
  32       0.00000000
  33       0.00000000
  34      -0.00000000
Ene=     1.00078E-02
Spin= Alpha
Occup=   0.0000000000
   1      -0.00000000
   2      -0.00000000
   3       0.00000000
   4      -0.00000000
   5       0.00000000
   6      -0.00000000
   7       0.00000000
   8       0.00000000
   9       0.00000000
  10       0.00000000
  11       0.05814402
  12      -0.19989301
  13       0.09018467
  14      -0.17990941
  15       0.61850953
  16      -0.27904966
  17       0.35963370
  18      -1.23638262
  19       0.55781218
  20      -0.39591583
  21       1.36111673
  22      -0.61408780
  23       0.00000000
  24       0.00000000
  25       0.00000000
  26       0.00000000
  27      -0.00000000
  28       0.00000000
  29       0.00000000
  30       0.00000000
  31       0.00000000
  32      -0.00000000
  33       0.00000000
  34      -0.00000000
Ene=     1.00078E-02
Spin= Alpha
Occup=   0.0000000000
   1       0.00000000
   2       0.00000000
   3      -0.00000000
   4       0.00000000
   5      -0.00000000
   6       0.00000000
   7      -0.00000000
   8       0.00000000
   9      -0.00000000
  10       0.00000000
  11      -0.03913579
  12       0.08234463
  13       0.20774737
  14       0.12109406
  15      -0.25479098
  16      -0.64281252
  17      -0.24206352
  18       0.50931979
  19       1.28496359
  20       0.26648442
  21      -0.56070320
  22      -1.41459885
  23       0.00000000
  24      -0.00000000
  25       0.00000000
  26      -0.00000000
  27      -0.00000000
  28      -0.00000000
  29      -0.00000000
  30      -0.00000000
  31      -0.00000000
  32       0.00000000
  33       0.00000000
  34       0.00000000
Ene=     1.00078E-02
Spin= Alpha
Occup=   0.0000000000
   1       0.00000000
   2       0.00000000
   3      -0.00000000
   4       0.00000000
   5      -0.00000000
   6       0.00000000
   7      -0.00000000
   8       0.00000000
   9      -0.00000000
  10       0.00000000
  11       0.21577506
  12       0.06879945
  13       0.01337808
  14      -0.66765184
  15      -0.21287946
  16      -0.04139451
  17       1.33461667
  18       0.42553987
  19       0.08274642
  20      -1.46926126
  21      -0.46847102
  22      -0.09109440
  23      -0.00000000
  24      -0.00000000
  25      -0.00000000
  26      -0.00000000
  27      -0.00000000
  28      -0.00000000
  29      -0.00000000
  30      -0.00000000
  31      -0.00000000
  32      -0.00000000
  33       0.00000000
  34       0.00000000
Ene=     2.66744E-02
Spin= Alpha
Occup=   0.0000000000
   1      -2.61156493
   2      -2.53665263
   3       4.15932701
   4      -3.94503034
   5       3.34440808
   6      -0.92223214
   7       0.14773574
   8      -0.07742622
   9       0.01401428
  10      -0.00334202
  11      -0.00000000
  12      -0.00000000
  13       0.00000000
  14       0.00000000
  15       0.00000000
  16      -0.00000000
  17      -0.00000000
  18      -0.00000000
  19       0.00000000
  20       0.00000000
  21       0.00000000
  22       0.00000000
  23       0.37354737
  24       0.37354737
  25       0.37354737
  26       0.00000000
  27       0.00000000
  28       0.00000000
  29       1.27470604
  30       1.27470604
  31       1.27470604
  32      -0.00000000
  33       0.00000000
  34      -0.00000000
Ene=     8.47279E-02
Spin= Alpha
Occup=   0.0000000000
   1       1.40899060
   2       1.32765430
   3      -2.21598754
   4       2.37908783
   5      -3.33107629
   6       3.35399573
   7      -1.10599783
   8       0.16430379
   9      -0.05759813
  10       0.00787499
  11      -0.00000000
  12       0.00000000
  13      -0.00000000
  14       0.00000000
  15      -0.00000000
  16       0.00000000
  17      -0.00000000
  18       0.00000000
  19      -0.00000000
  20       0.00000000
  21      -0.00000000
  22       0.00000000
  23      -0.20247356
  24      -0.20247356
  25      -0.20247356
  26      -0.00000000
  27      -0.00000000
  28      -0.00000000
  29      -0.67899579
  30      -0.67899579
  31      -0.67899579
  32       0.00000000
  33       0.00000000
  34       0.00000000
Ene=     2.87848E-01
Spin= Alpha
Occup=   0.0000000000
   1       0.73732582
   2       0.68057107
   3      -1.13528428
   4       1.21846657
   5      -1.89945109
   6       3.03763242
   7      -3.40746209
   8       1.29512320
   9      -0.22327986
  10       0.04647827
  11       0.00000000
  12       0.00000000
  13      -0.00000000
  14      -0.00000000
  15      -0.00000000
  16       0.00000000
  17       0.00000000
  18       0.00000000
  19      -0.00000000
  20      -0.00000000
  21      -0.00000000
  22       0.00000000
  23      -0.10617558
  24      -0.10617558
  25      -0.10617558
  26      -0.00000000
  27       0.00000000
  28      -0.00000000
  29      -0.35269380
  30      -0.35269380
  31      -0.35269380
  32      -0.00000000
  33      -0.00000000
  34       0.00000000
Ene=     9.80556E-01
Spin= Alpha
Occup=   0.0000000000
   1      -0.37745772
   2      -0.34534447
   3       0.57511836
   4      -0.60984707
   5       0.94699361
   6      -1.64699232
   7       2.75724291
   8      -3.25328887
   9       1.19038245
  10      -0.13528176
  11       0.00000000
  12      -0.00000000
  13       0.00000000
  14      -0.00000000
  15       0.00000000
  16      -0.00000000
  17       0.00000000
  18      -0.00000000
  19       0.00000000
  20      -0.00000000
  21       0.00000000
  22      -0.00000000
  23       0.05439612
  24       0.05439612
  25       0.05439612
  26      -0.00000000
  27      -0.00000000
  28       0.00000000
  29       0.18000972
  30       0.18000972
  31       0.18000972
  32       0.00000000
  33      -0.00000000
  34      -0.00000000
Ene=     3.02223E+00
Spin= Alpha
Occup=   0.0000000000
   1      -0.20083671
   2      -0.18318161
   3       0.30482167
   4      -0.32130971
   5       0.49389712
   6      -0.85540269
   7       1.53416627
   8      -2.57436260
   9       2.92997032
  10      -0.81667788
  11      -0.00000000
  12      -0.00000000
  13       0.00000000
  14       0.00000000
  15       0.00000000
  16      -0.00000000
  17      -0.00000000
  18      -0.00000000
  19       0.00000000
  20       0.00000000
  21       0.00000000
  22      -0.00000000
  23       0.02895027
  24       0.02895027
  25       0.02895027
  26      -0.00000000
  27      -0.00000000
  28       0.00000000
  29       0.09567966
  30       0.09567966
  31       0.09567966
  32       0.00000000
  33       0.00000000
  34      -0.00000000
Ene=     1.08327E+01
Spin= Alpha
Occup=   0.0000000000
   1      -0.10637488
   2      -0.09689333
   3       0.16116946
   4      -0.16936259
   5       0.25852333
   6      -0.44181727
   7       0.78181452
   8      -1.37138256
   9       2.13365970
  10      -1.97512180
  11       0.00000000
  12      -0.00000000
  13       0.00000000
  14      -0.00000000
  15       0.00000000
  16      -0.00000000
  17       0.00000000
  18      -0.00000000
  19       0.00000000
  20      -0.00000000
  21       0.00000000
  22      -0.00000000
  23       0.01533536
  24       0.01533536
  25       0.01533536
  26      -0.00000000
  27      -0.00000000
  28       0.00000000
  29       0.05065503
  30       0.05065503
  31       0.05065503
  32       0.00000000
  33       0.00000000
  34       0.00000000
