 Molden2AIM, Version 3.1.0 (02/25/2015)           Time: Wed Dec  4 18:42:34 2024
GAUSSIAN             23 MOL ORBITALS     36 PRIMITIVES        1 NUCLEI
  Be   1    (CENTRE  1)   0.00000000  0.00000000  0.00000000  CHARGE =  4.0
CENTRE ASSIGNMENTS    1  1  1  1  1  1  1  1  1  1  1  1  1  1  1  1  1  1  1  1
CENTRE ASSIGNMENTS    1  1  1  1  1  1  1  1  1  1  1  1  1  1  1  1
TYPE ASSIGNMENTS      1  1  1  1  1  1  1  1  1  2  2  2  3  3  3  4  4  4  1  2
TYPE ASSIGNMENTS      3  4  1  2  3  4  1  2  3  4  5  6  7  8  9 10
EXPONENTS  0.1682800D+04 0.2517150D+03 0.5741160D+02 0.1651710D+02 0.4853640D+01
EXPONENTS  0.6268630D+00 0.8309380D+01 0.1740750D+01 0.4858160D+00 0.8309380D+01
EXPONENTS  0.1740750D+01 0.4858160D+00 0.8309380D+01 0.1740750D+01 0.4858160D+00
EXPONENTS  0.8309380D+01 0.1740750D+01 0.4858160D+00 0.1636130D+00 0.1636130D+00
EXPONENTS  0.1636130D+00 0.1636130D+00 0.5672850D-01 0.5672850D-01 0.5672850D-01
EXPONENTS  0.5672850D-01 0.2070000D-01 0.2070000D-01 0.2070000D-01 0.2070000D-01
EXPONENTS  0.2550000D+00 0.2550000D+00 0.2550000D+00 0.2550000D+00 0.2550000D+00
EXPONENTS  0.2550000D+00
MO    1     MO 0.0        OCC NO =    2.0000000  ORB. ENERGY =   -4.741760
  0.25521829D+00  0.47250027D+00  0.76520820D+00  0.98130918D+00  0.89021340D+00
  0.43252252D-01  0.16914790D+00  0.44714604D+00 -0.55021664D-03 -0.00000000D+00
 -0.00000000D+00 -0.00000000D+00 -0.00000000D+00 -0.00000000D+00 -0.00000000D+00
 -0.00000000D+00 -0.00000000D+00 -0.00000000D+00 -0.89643408D-03 -0.00000000D+00
  0.00000000D+00  0.00000000D+00  0.11806761D-03 -0.00000000D+00 -0.00000000D+00
 -0.00000000D+00 -0.16682616D-04 -0.00000000D+00  0.00000000D+00  0.00000000D+00
  0.10104598D-03  0.10104598D-03  0.10104598D-03  0.00000000D+00  0.00000000D+00
 -0.00000000D+00
MO    2     MO 0.0        OCC NO =    2.0000000  ORB. ENERGY =   -0.318670
  0.46904733D-01  0.86837426D-01  0.14063211D+00  0.18034776D+00  0.16360592D+00
  0.79490202D-02  0.70355507D-01  0.18598626D+00 -0.22885753D-03  0.00000000D+00
  0.00000000D+00  0.00000000D+00  0.00000000D+00  0.00000000D+00  0.00000000D+00
  0.00000000D+00  0.00000000D+00  0.00000000D+00 -0.10707434D+00  0.00000000D+00
  0.00000000D+00 -0.00000000D+00 -0.41433074D-01  0.00000000D+00  0.00000000D+00
  0.00000000D+00 -0.86896157D-03  0.00000000D+00  0.00000000D+00 -0.00000000D+00
  0.26695832D-03  0.26695832D-03  0.26695832D-03 -0.00000000D+00 -0.00000000D+00
  0.00000000D+00
MO    3     MO 0.0        OCC NO =    0.0000000  ORB. ENERGY =    0.020158
 -0.00000000D+00 -0.00000000D+00 -0.00000000D+00 -0.00000000D+00 -0.00000000D+00
 -0.00000000D+00 -0.00000000D+00 -0.00000000D+00  0.00000000D+00  0.14129427D-01
  0.12023727D-01  0.94637170D-02  0.53360324D-01  0.45408067D-01  0.35740090D-01
 -0.11239368D-02 -0.95643712D-03 -0.75279905D-03  0.00000000D+00  0.75690046D-02
  0.28584635D-01 -0.60208250D-03  0.00000000D+00  0.20838909D-04  0.78699381D-04
 -0.16578468D-05 -0.00000000D+00  0.25715694D-02  0.97116300D-02 -0.20455767D-03
 -0.00000000D+00  0.00000000D+00 -0.00000000D+00  0.00000000D+00  0.00000000D+00
 -0.00000000D+00
MO    4     MO 0.0        OCC NO =    0.0000000  ORB. ENERGY =    0.020158
  0.00000000D+00  0.00000000D+00  0.00000000D+00  0.00000000D+00  0.00000000D+00
  0.00000000D+00  0.00000000D+00  0.00000000D+00 -0.00000000D+00 -0.41360437D-02
 -0.35196515D-02 -0.27702713D-02  0.22538683D-02  0.19179757D-02  0.15096133D-02
  0.55009472D-01  0.46811443D-01  0.36844669D-01 -0.00000000D+00 -0.22156389D-02
  0.12073762D-02  0.29468066D-01 -0.00000000D+00 -0.61002132D-05  0.33239809D-05
  0.81131889D-04  0.00000000D+00 -0.75276323D-03  0.41020588D-03  0.10011775D-01
  0.00000000D+00  0.00000000D+00  0.00000000D+00  0.00000000D+00  0.00000000D+00
  0.00000000D+00
MO    5     MO 0.0        OCC NO =    0.0000000  ORB. ENERGY =    0.020158
 -0.00000000D+00 -0.00000000D+00 -0.00000000D+00 -0.00000000D+00 -0.00000000D+00
 -0.00000000D+00 -0.00000000D+00 -0.00000000D+00  0.00000000D+00 -0.53211660D-01
 -0.45281558D-01 -0.35640517D-01  0.13993719D-01  0.11908244D-01  0.93728214D-02
 -0.45742246D-02 -0.38925306D-02 -0.30637595D-02  0.00000000D+00 -0.28504996D-01
  0.74963049D-02 -0.24503696D-02  0.00000000D+00 -0.78480360D-04  0.20638831D-04
 -0.67462249D-05 -0.00000000D+00 -0.96845726D-02  0.25468695D-02 -0.83251287D-03
 -0.00000000D+00  0.00000000D+00 -0.00000000D+00 -0.00000000D+00 -0.00000000D+00
  0.00000000D+00
MO    6     MO 0.0        OCC NO =    0.0000000  ORB. ENERGY =    0.041689
  0.13143617D-01  0.24333534D-01  0.39407849D-01  0.50536944D-01  0.45845556D-01
  0.22274699D-02  0.25297968D-01  0.66875709D-01 -0.82291075D-04  0.00000000D+00
  0.00000000D+00  0.00000000D+00  0.00000000D+00  0.00000000D+00  0.00000000D+00
 -0.00000000D+00 -0.00000000D+00 -0.00000000D+00 -0.22710606D-02 -0.00000000D+00
 -0.00000000D+00 -0.00000000D+00 -0.12306441D+00 -0.00000000D+00  0.00000000D+00
 -0.00000000D+00  0.71929846D-01 -0.00000000D+00 -0.00000000D+00 -0.00000000D+00
  0.73994963D-02  0.73994963D-02  0.73994963D-02  0.00000000D+00 -0.00000000D+00
 -0.00000000D+00
MO    7     MO 0.0        OCC NO =    0.0000000  ORB. ENERGY =    0.088621
  0.00000000D+00  0.00000000D+00  0.00000000D+00  0.00000000D+00  0.00000000D+00
  0.00000000D+00  0.00000000D+00  0.00000000D+00 -0.00000000D+00  0.87394794D-02
  0.74370399D-02  0.58535960D-02 -0.87973348D-03 -0.74862731D-03 -0.58923469D-03
  0.12592162D+00  0.10715560D+00  0.84340758D-01  0.00000000D+00  0.94170217D-03
 -0.94794069D-04  0.13568389D-01 -0.00000000D+00  0.33998160D-02 -0.34223349D-03
  0.48985793D-01  0.00000000D+00 -0.90072558D-03  0.90669108D-04 -0.12977985D-01
  0.00000000D+00  0.00000000D+00  0.00000000D+00 -0.00000000D+00  0.00000000D+00
 -0.00000000D+00
MO    8     MO 0.0        OCC NO =    0.0000000  ORB. ENERGY =    0.088621
 -0.00000000D+00 -0.00000000D+00 -0.00000000D+00 -0.00000000D+00 -0.00000000D+00
 -0.00000000D+00 -0.00000000D+00 -0.00000000D+00  0.00000000D+00 -0.11777837D+00
 -0.10022593D+00 -0.78886507D-01 -0.44719712D-01 -0.38055160D-01 -0.29952715D-01
  0.78618749D-02  0.66902244D-02  0.52657874D-02  0.00000000D+00 -0.12690934D-01
 -0.48186683D-02  0.84713800D-03 -0.00000000D+00 -0.45817922D-01 -0.17396779D-01
  0.30584120D-02  0.00000000D+00  0.12138709D-01  0.46089922D-02 -0.81027628D-03
  0.00000000D+00 -0.00000000D+00  0.00000000D+00  0.00000000D+00 -0.00000000D+00
  0.00000000D+00
MO    9     MO 0.0        OCC NO =    0.0000000  ORB. ENERGY =    0.088621
 -0.00000000D+00 -0.00000000D+00 -0.00000000D+00 -0.00000000D+00 -0.00000000D+00
 -0.00000000D+00 -0.00000000D+00 -0.00000000D+00  0.00000000D+00  0.44556515D-01
  0.37916284D-01  0.29843407D-01 -0.11803720D+00 -0.10044619D+00 -0.79059868D-01
 -0.39170622D-02 -0.33333047D-02 -0.26236002D-02 -0.00000000D+00  0.48010830D-02
 -0.12718822D-01 -0.42207315D-03  0.00000000D+00  0.17333293D-01 -0.45918610D-01
 -0.15238067D-02 -0.00000000D+00 -0.45921727D-02  0.12165385D-01  0.40370765D-03
 -0.00000000D+00  0.00000000D+00 -0.00000000D+00  0.00000000D+00 -0.00000000D+00
 -0.00000000D+00
MO   10     MO 0.0        OCC NO =    0.0000000  ORB. ENERGY =    0.311795
 -0.43152729D-01 -0.79891124D-01 -0.12938266D+00 -0.16592137D+00 -0.15051875D+00
 -0.73131619D-02 -0.45724491D-01 -0.12087365D+00  0.14873596D-03  0.00000000D+00
  0.00000000D+00  0.00000000D+00  0.00000000D+00  0.00000000D+00  0.00000000D+00
 -0.00000000D+00 -0.00000000D+00 -0.00000000D+00  0.32693124D+00  0.00000000D+00
  0.00000000D+00 -0.00000000D+00 -0.27076096D+00 -0.00000000D+00 -0.00000000D+00
  0.00000000D+00  0.51427412D-01  0.00000000D+00  0.00000000D+00 -0.00000000D+00
  0.39250630D-01  0.39250630D-01  0.39250630D-01  0.00000000D+00  0.00000000D+00
 -0.00000000D+00
MO   11     MO 0.0        OCC NO =    0.0000000  ORB. ENERGY =    0.336395
  0.00000000D+00  0.00000000D+00  0.00000000D+00  0.00000000D+00  0.00000000D+00
  0.00000000D+00  0.00000000D+00  0.00000000D+00 -0.00000000D+00 -0.66367312D-03
 -0.56476631D-03 -0.44452011D-03  0.54545466D-02  0.46416588D-02  0.36533884D-02
 -0.13950610D+00 -0.11871559D+00 -0.93439476D-01 -0.00000000D+00 -0.93651675D-03
  0.76969847D-02 -0.19685889D+00  0.00000000D+00  0.33858314D-03 -0.27827229D-02
  0.71171218D-01 -0.00000000D+00 -0.39926582D-04  0.32814601D-03 -0.83926974D-02
 -0.00000000D+00 -0.00000000D+00 -0.00000000D+00 -0.00000000D+00  0.00000000D+00
 -0.00000000D+00
MO   12     MO 0.0        OCC NO =    0.0000000  ORB. ENERGY =    0.336395
  0.00000000D+00  0.00000000D+00  0.00000000D+00  0.00000000D+00  0.00000000D+00
  0.00000000D+00  0.00000000D+00  0.00000000D+00 -0.00000000D+00 -0.17023026D-01
 -0.14486094D-01 -0.11401814D-01 -0.13846993D+00 -0.11783384D+00 -0.92745461D-01
 -0.53330518D-02 -0.45382702D-02 -0.35720126D-02 -0.00000000D+00 -0.24021410D-01
 -0.19539673D+00 -0.75255381D-02  0.00000000D+00  0.86845608D-02  0.70642596D-01
  0.27207393D-02 -0.00000000D+00 -0.10241063D-02 -0.83303610D-02 -0.32083671D-03
  0.00000000D+00 -0.00000000D+00 -0.00000000D+00 -0.00000000D+00  0.00000000D+00
 -0.00000000D+00
MO   13     MO 0.0        OCC NO =    0.0000000  ORB. ENERGY =    0.336395
 -0.00000000D+00 -0.00000000D+00 -0.00000000D+00 -0.00000000D+00 -0.00000000D+00
 -0.00000000D+00 -0.00000000D+00 -0.00000000D+00  0.00000000D+00 -0.13857100D+00
 -0.11791985D+00 -0.92813155D-01  0.16984485D-01  0.14453297D-01  0.11375999D-01
  0.13232988D-02  0.11260884D-02  0.88632932D-03  0.00000000D+00 -0.19553935D+00
  0.23967026D-01  0.18673260D-02 -0.00000000D+00  0.70694160D-01 -0.86648991D-02
 -0.67510237D-03  0.00000000D+00 -0.83364414D-02  0.10217877D-02  0.79609852D-04
  0.00000000D+00 -0.00000000D+00  0.00000000D+00 -0.00000000D+00  0.00000000D+00
 -0.00000000D+00
MO   14     MO 0.0        OCC NO =    0.0000000  ORB. ENERGY =    0.683440
 -0.00000000D+00 -0.00000000D+00 -0.00000000D+00 -0.00000000D+00 -0.00000000D+00
 -0.00000000D+00  0.00000000D+00  0.00000000D+00 -0.00000000D+00  0.00000000D+00
  0.00000000D+00  0.00000000D+00  0.00000000D+00  0.00000000D+00  0.00000000D+00
  0.00000000D+00  0.00000000D+00  0.00000000D+00 -0.00000000D+00 -0.00000000D+00
 -0.00000000D+00 -0.00000000D+00 -0.00000000D+00  0.00000000D+00  0.00000000D+00
  0.00000000D+00  0.00000000D+00 -0.00000000D+00 -0.00000000D+00 -0.00000000D+00
 -0.55580959D-01  0.51590480D-01  0.39904795D-02 -0.19010167D-01 -0.49519337D-01
  0.23173989D+00
MO   15     MO 0.0        OCC NO =    0.0000000  ORB. ENERGY =    0.683440
  0.00000000D+00  0.00000000D+00  0.00000000D+00  0.00000000D+00  0.00000000D+00
  0.00000000D+00  0.00000000D+00  0.00000000D+00 -0.00000000D+00 -0.00000000D+00
 -0.00000000D+00 -0.00000000D+00 -0.00000000D+00 -0.00000000D+00 -0.00000000D+00
  0.00000000D+00  0.00000000D+00  0.00000000D+00 -0.00000000D+00  0.00000000D+00
  0.00000000D+00  0.00000000D+00  0.00000000D+00 -0.00000000D+00 -0.00000000D+00
 -0.00000000D+00 -0.00000000D+00  0.00000000D+00  0.00000000D+00  0.00000000D+00
 -0.12029007D+00  0.11694501D+00  0.33450631D-02 -0.23099652D-02  0.34213223D-01
 -0.10276421D+00
MO   16     MO 0.0        OCC NO =    0.0000000  ORB. ENERGY =    0.683440
  0.00000000D+00  0.00000000D+00  0.00000000D+00  0.00000000D+00  0.00000000D+00
  0.00000000D+00 -0.00000000D+00 -0.00000000D+00  0.00000000D+00  0.00000000D+00
  0.00000000D+00  0.00000000D+00  0.00000000D+00  0.00000000D+00  0.00000000D+00
 -0.00000000D+00 -0.00000000D+00 -0.00000000D+00  0.00000000D+00 -0.00000000D+00
 -0.00000000D+00  0.00000000D+00 -0.00000000D+00  0.00000000D+00 -0.00000000D+00
 -0.00000000D+00  0.00000000D+00 -0.00000000D+00  0.00000000D+00  0.00000000D+00
  0.81782933D-02 -0.19501342D-02 -0.62281605D-02  0.11419876D-01  0.25317198D+00
  0.60041630D-01
MO   17     MO 0.0        OCC NO =    0.0000000  ORB. ENERGY =    0.683440
 -0.00000000D+00 -0.00000000D+00 -0.00000000D+00 -0.00000000D+00 -0.00000000D+00
 -0.00000000D+00 -0.00000000D+00 -0.00000000D+00  0.00000000D+00  0.00000000D+00
  0.00000000D+00  0.00000000D+00 -0.00000000D+00 -0.00000000D+00 -0.00000000D+00
 -0.00000000D+00 -0.00000000D+00 -0.00000000D+00  0.00000000D+00  0.00000000D+00
  0.00000000D+00  0.00000000D+00 -0.00000000D+00 -0.00000000D+00 -0.00000000D+00
 -0.00000000D+00  0.00000000D+00  0.00000000D+00  0.00000000D+00  0.00000000D+00
  0.58085586D-02 -0.45453446D-02 -0.12632141D-02 -0.25990758D+00  0.14392232D-01
 -0.13391857D-01
MO   18     MO 0.0        OCC NO =    0.0000000  ORB. ENERGY =    0.683440
 -0.00000000D+00 -0.00000000D+00 -0.00000000D+00 -0.00000000D+00 -0.00000000D+00
 -0.00000000D+00 -0.00000000D+00 -0.00000000D+00  0.00000000D+00 -0.00000000D+00
 -0.00000000D+00 -0.00000000D+00  0.00000000D+00  0.00000000D+00  0.00000000D+00
  0.00000000D+00  0.00000000D+00  0.00000000D+00  0.00000000D+00 -0.00000000D+00
 -0.00000000D+00 -0.00000000D+00 -0.00000000D+00  0.00000000D+00  0.00000000D+00
  0.00000000D+00  0.00000000D+00 -0.00000000D+00 -0.00000000D+00 -0.00000000D+00
  0.70879502D-01  0.79506579D-01 -0.15038608D+00  0.11544100D-02 -0.11158858D-01
  0.14892899D-02
MO   19     MO 0.0        OCC NO =    0.0000000  ORB. ENERGY =    1.189380
 -0.00000000D+00 -0.00000000D+00 -0.00000000D+00 -0.00000000D+00 -0.00000000D+00
 -0.00000000D+00  0.00000000D+00  0.00000000D+00 -0.00000000D+00  0.67785958D+00
  0.57683857D+00  0.45402203D+00  0.76914650D+00  0.65452105D+00  0.51516489D+00
 -0.54519758D-01 -0.46394710D-01 -0.36516665D-01 -0.00000000D+00 -0.16887362D+00
 -0.19161572D+00  0.13582384D-01 -0.00000000D+00  0.27672527D-01  0.31399168D-01
 -0.22256812D-02  0.00000000D+00 -0.27238587D-02 -0.30906789D-02  0.21907802D-03
 -0.00000000D+00  0.00000000D+00  0.00000000D+00 -0.00000000D+00 -0.00000000D+00
 -0.00000000D+00
MO   20     MO 0.0        OCC NO =    0.0000000  ORB. ENERGY =    1.189380
 -0.00000000D+00 -0.00000000D+00 -0.00000000D+00 -0.00000000D+00 -0.00000000D+00
 -0.00000000D+00 -0.00000000D+00 -0.00000000D+00  0.00000000D+00  0.40508381D-01
  0.34471441D-01  0.27132017D-01  0.36969443D-01  0.31459908D-01  0.24761679D-01
  0.10252047D+01  0.87241905D+00  0.68666953D+00 -0.00000000D+00 -0.10091761D-01
 -0.92101137D-02 -0.25540692D+00  0.00000000D+00  0.16536894D-02  0.15092179D-02
  0.41852333D-01 -0.00000000D+00 -0.16277570D-03 -0.14855519D-03 -0.41196034D-02
  0.00000000D+00 -0.00000000D+00 -0.00000000D+00  0.00000000D+00  0.00000000D+00
 -0.00000000D+00
MO   21     MO 0.0        OCC NO =    0.0000000  ORB. ENERGY =    1.189380
  0.00000000D+00  0.00000000D+00  0.00000000D+00  0.00000000D+00  0.00000000D+00
  0.00000000D+00 -0.00000000D+00 -0.00000000D+00  0.00000000D+00  0.77001157D+00
  0.65525720D+00  0.51574430D+00 -0.67904291D+00 -0.57784555D+00 -0.45481461D+00
 -0.59384117D-02 -0.50534137D-02 -0.39774753D-02  0.00000000D+00 -0.19183124D+00
  0.16916842D+00  0.14794223D-02 -0.00000000D+00  0.31434483D-01 -0.27720835D-01
 -0.24242606D-03 -0.00000000D+00 -0.30941550D-02  0.27286136D-02  0.23862430D-04
 -0.00000000D+00  0.00000000D+00  0.00000000D+00  0.00000000D+00  0.00000000D+00
 -0.00000000D+00
MO   22     MO 0.0        OCC NO =    0.0000000  ORB. ENERGY =    1.405330
  0.71167750D-01  0.13175694D+00  0.21337870D+00  0.27363857D+00  0.24823646D+00
  0.12060912D-01  0.27769163D+00  0.73408367D+00 -0.90329560D-03  0.00000000D+00
  0.00000000D+00  0.00000000D+00  0.00000000D+00  0.00000000D+00  0.00000000D+00
  0.00000000D+00  0.00000000D+00  0.00000000D+00 -0.53184895D+00 -0.00000000D+00
 -0.00000000D+00 -0.00000000D+00 -0.11650492D+00  0.00000000D+00  0.00000000D+00
  0.00000000D+00  0.19352706D-01 -0.00000000D+00 -0.00000000D+00 -0.00000000D+00
  0.25271702D+00  0.25271702D+00  0.25271702D+00  0.00000000D+00 -0.00000000D+00
  0.00000000D+00
MO   23     MO 0.0        OCC NO =    0.0000000  ORB. ENERGY =   10.057200
 -0.82169816D+00 -0.15212570D+01 -0.24636564D+01 -0.31594129D+01 -0.28661218D+01
 -0.13925450D+00  0.97405958D+00  0.25749470D+01 -0.31684921D-02  0.00000000D+00
  0.00000000D+00  0.00000000D+00 -0.00000000D+00 -0.00000000D+00 -0.00000000D+00
  0.00000000D+00  0.00000000D+00  0.00000000D+00 -0.37191679D+00  0.00000000D+00
  0.00000000D+00 -0.00000000D+00 -0.31246525D-01  0.00000000D+00 -0.00000000D+00
  0.00000000D+00  0.57951254D-02  0.00000000D+00  0.00000000D+00 -0.00000000D+00
  0.13168643D+00  0.13168643D+00  0.13168643D+00 -0.00000000D+00  0.00000000D+00
  0.00000000D+00
END DATA
 THE  HF ENERGY =    -14.571870409350 THE VIRIAL(-V/T)=   2.00003292


 $MOSPIN $END
 3 3 3 3 3 3 3 3 3 3 3 3 3 3 3 3 3 3 3 3 3 3 3


