 Molden2AIM, Version 3.1.0 (02/25/2015)           Time: Wed Dec  4 18:42:34 2024
GAUSSIAN             34 MOL ORBITALS     34 PRIMITIVES        1 NUCLEI
  Be   1    (CENTRE  1)   0.00000000  0.00000000  0.00000000  CHARGE =  4.0
CENTRE ASSIGNMENTS    1  1  1  1  1  1  1  1  1  1  1  1  1  1  1  1  1  1  1  1
CENTRE ASSIGNMENTS    1  1  1  1  1  1  1  1  1  1  1  1  1  1
TYPE ASSIGNMENTS      1  1  1  1  1  1  1  1  1  1  2  3  4  2  3  4  2  3  4  2
TYPE ASSIGNMENTS      3  4  5  6  7  8  9 10  5  6  7  8  9 10
EXPONENTS  0.1000000D-03 0.3000000D-03 0.9000000D-03 0.2700000D-02 0.8100000D-02
EXPONENTS  0.2430000D-01 0.7290000D-01 0.2187000D+00 0.6561000D+00 0.1968300D+01
EXPONENTS  0.1000000D-03 0.1000000D-03 0.1000000D-03 0.3000000D-03 0.3000000D-03
EXPONENTS  0.3000000D-03 0.9000000D-03 0.9000000D-03 0.9000000D-03 0.2700000D-02
EXPONENTS  0.2700000D-02 0.2700000D-02 0.1000000D-03 0.1000000D-03 0.1000000D-03
EXPONENTS  0.1000000D-03 0.1000000D-03 0.1000000D-03 0.3000000D-03 0.3000000D-03
EXPONENTS  0.3000000D-03 0.3000000D-03 0.3000000D-03 0.3000000D-03
MO    1     MO 0.0        OCC NO =    1.0000000  ORB. ENERGY =    0.000075
 -0.13770545D-02  0.11406516D-02  0.71824572D-03 -0.32393500D-03  0.15508472D-03
 -0.17009488D-03 -0.64353441D-05 -0.12462846D-03  0.27302998D-04 -0.26481974D-04
 -0.00000000D+00 -0.00000000D+00 -0.00000000D+00  0.00000000D+00 -0.00000000D+00
 -0.00000000D+00 -0.00000000D+00  0.00000000D+00 -0.00000000D+00  0.00000000D+00
 -0.00000000D+00 -0.00000000D+00  0.12872597D-06  0.12872597D-06  0.12872597D-06
 -0.00000000D+00  0.00000000D+00  0.00000000D+00  0.40916025D-06  0.40916025D-06
  0.40916025D-06 -0.00000000D+00  0.00000000D+00  0.00000000D+00
MO    2     MO 0.0        OCC NO =    0.0000000  ORB. ENERGY =    0.000226
  0.00000000D+00 -0.00000000D+00 -0.00000000D+00  0.00000000D+00 -0.00000000D+00
 -0.00000000D+00 -0.00000000D+00  0.00000000D+00 -0.00000000D+00  0.00000000D+00
  0.51903204D-07  0.52533663D-07 -0.16919821D-04 -0.55716168D-07 -0.56392634D-07
  0.18162758D-04  0.54601102D-07  0.55265478D-07 -0.17799644D-04 -0.41495971D-07
 -0.42004801D-07  0.13528467D-04 -0.00000000D+00  0.00000000D+00  0.00000000D+00
 -0.00000000D+00  0.00000000D+00 -0.00000000D+00  0.00000000D+00 -0.00000000D+00
 -0.00000000D+00  0.00000000D+00 -0.00000000D+00  0.00000000D+00
MO    3     MO 0.0        OCC NO =    0.0000000  ORB. ENERGY =    0.000226
  0.00000000D+00 -0.00000000D+00 -0.00000000D+00 -0.00000000D+00  0.00000000D+00
  0.00000000D+00  0.00000000D+00 -0.00000000D+00 -0.00000000D+00  0.00000000D+00
 -0.88690067D-07 -0.16919667D-04 -0.52805204D-07  0.95205025D-07  0.18162593D-04
  0.56684156D-07 -0.93301602D-07 -0.17799481D-04 -0.55552116D-07  0.70911614D-07
  0.13528345D-04  0.42224125D-07  0.00000000D+00 -0.00000000D+00 -0.00000000D+00
 -0.00000000D+00 -0.00000000D+00  0.00000000D+00 -0.00000000D+00  0.00000000D+00
 -0.00000000D+00  0.00000000D+00 -0.00000000D+00 -0.00000000D+00
MO    4     MO 0.0        OCC NO =    0.0000000  ORB. ENERGY =    0.000226
 -0.00000000D+00  0.00000000D+00  0.00000000D+00  0.00000000D+00 -0.00000000D+00
  0.00000000D+00 -0.00000000D+00  0.00000000D+00 -0.00000000D+00  0.00000000D+00
  0.16919670D-04 -0.88851138D-07  0.51626816D-07 -0.18162596D-04  0.95378362D-07
 -0.55419581D-07  0.17799484D-04 -0.93470473D-07  0.54312242D-07 -0.13528353D-04
  0.71043208D-07 -0.41276648D-07  0.00000000D+00 -0.00000000D+00  0.00000000D+00
 -0.00000000D+00  0.00000000D+00  0.00000000D+00  0.00000000D+00  0.00000000D+00
  0.00000000D+00  0.00000000D+00 -0.00000000D+00 -0.00000000D+00
MO    5     MO 0.0        OCC NO =    0.0000000  ORB. ENERGY =    0.000319
 -0.45741001D-02  0.26960609D-02  0.16986060D-02 -0.65756866D-03  0.47803502D-03
 -0.16428237D-03  0.36951434D-03  0.38202924D-04  0.79051402D-04  0.49742528D-06
 -0.00000000D+00 -0.00000000D+00 -0.00000000D+00 -0.00000000D+00  0.00000000D+00
  0.00000000D+00  0.00000000D+00 -0.00000000D+00 -0.00000000D+00 -0.00000000D+00
  0.00000000D+00  0.00000000D+00  0.24313508D-06  0.24313508D-06  0.24313508D-06
  0.00000000D+00 -0.00000000D+00 -0.00000000D+00  0.95547801D-06  0.95547801D-06
  0.95547801D-06 -0.00000000D+00  0.00000000D+00  0.00000000D+00
MO    6     MO 0.0        OCC NO =    0.0000000  ORB. ENERGY =    0.000331
 -0.00000000D+00  0.00000000D+00  0.00000000D+00 -0.00000000D+00  0.00000000D+00
 -0.00000000D+00  0.00000000D+00  0.00000000D+00  0.00000000D+00  0.00000000D+00
  0.00000000D+00  0.00000000D+00  0.00000000D+00 -0.00000000D+00 -0.00000000D+00
 -0.00000000D+00 -0.00000000D+00  0.00000000D+00  0.00000000D+00 -0.00000000D+00
 -0.00000000D+00  0.00000000D+00 -0.11251811D-06  0.17622835D-06 -0.63710234D-07
 -0.41196457D-08  0.13246888D-07  0.47431310D-07  0.12556245D-06 -0.19665868D-06
  0.71096230D-07  0.45972311D-08 -0.14782606D-07 -0.52930066D-07
MO    7     MO 0.0        OCC NO =    0.0000000  ORB. ENERGY =    0.000331
 -0.00000000D+00  0.00000000D+00  0.00000000D+00 -0.00000000D+00  0.00000000D+00
 -0.00000000D+00  0.00000000D+00 -0.00000000D+00  0.00000000D+00 -0.00000000D+00
 -0.00000000D+00  0.00000000D+00 -0.00000000D+00  0.00000000D+00 -0.00000000D+00
 -0.00000000D+00 -0.00000000D+00  0.00000000D+00 -0.00000000D+00  0.00000000D+00
 -0.00000000D+00  0.00000000D+00  0.39577012D-07 -0.22765594D-07 -0.16811416D-07
 -0.66494309D-08  0.24656402D-07  0.30431407D-06 -0.44165220D-07  0.25404830D-07
  0.18760378D-07  0.74203024D-08 -0.27514841D-07 -0.33959353D-06
MO    8     MO 0.0        OCC NO =    0.0000000  ORB. ENERGY =    0.000331
 -0.00000000D+00  0.00000000D+00  0.00000000D+00 -0.00000000D+00  0.00000000D+00
 -0.00000000D+00  0.00000000D+00  0.00000000D+00  0.00000000D+00  0.00000000D+00
  0.00000000D+00 -0.00000000D+00 -0.00000000D+00  0.00000000D+00  0.00000000D+00
  0.00000000D+00  0.00000000D+00  0.00000000D+00  0.00000000D+00 -0.00000000D+00
 -0.00000000D+00  0.00000000D+00  0.13578209D-06  0.32423890D-07 -0.16820598D-06
  0.57504213D-09  0.24799186D-08 -0.49239535D-07 -0.15152345D-06 -0.36182828D-07
  0.18770628D-06 -0.64171078D-09 -0.27674118D-08  0.54947918D-07
MO    9     MO 0.0        OCC NO =    0.0000000  ORB. ENERGY =    0.000331
 -0.00000000D+00  0.00000000D+00  0.00000000D+00 -0.00000000D+00  0.00000000D+00
 -0.00000000D+00  0.00000000D+00 -0.00000000D+00  0.00000000D+00  0.00000000D+00
 -0.00000000D+00  0.00000000D+00 -0.00000000D+00  0.00000000D+00 -0.00000000D+00
  0.00000000D+00 -0.00000000D+00  0.00000000D+00 -0.00000000D+00  0.00000000D+00
 -0.00000000D+00  0.00000000D+00 -0.63434358D-09  0.60600342D-08 -0.54256906D-08
  0.22159652D-07 -0.31094321D-06  0.26149939D-07  0.70788083D-09 -0.67625800D-08
  0.60546992D-08 -0.24728636D-07  0.34699118D-06 -0.29181523D-07
MO   10     MO 0.0        OCC NO =    0.0000000  ORB. ENERGY =    0.000331
 -0.00000000D+00  0.00000000D+00  0.00000000D+00 -0.00000000D+00  0.00000000D+00
 -0.00000000D+00  0.00000000D+00  0.00000000D+00  0.00000000D+00  0.00000000D+00
 -0.00000000D+00  0.00000000D+00  0.00000000D+00  0.00000000D+00  0.00000000D+00
 -0.00000000D+00  0.00000000D+00  0.00000000D+00  0.00000000D+00  0.00000000D+00
 -0.00000000D+00 -0.00000000D+00  0.84699351D-09 -0.13508862D-08  0.50389268D-09
 -0.31215559D-06 -0.22769064D-07 -0.53427110D-08 -0.94518429D-09  0.15074954D-08
 -0.56231115D-09  0.34834413D-06  0.25408713D-07  0.59621045D-08
MO   11     MO 0.0        OCC NO =    0.0000000  ORB. ENERGY =    0.000815
 -0.70945686D-02  0.56452856D-02  0.34647455D-02 -0.14853035D-02  0.71074120D-03
 -0.72630276D-03  0.24582495D-04 -0.50654602D-03  0.12294922D-03 -0.10861636D-03
  0.00000000D+00 -0.00000000D+00  0.00000000D+00 -0.00000000D+00  0.00000000D+00
 -0.00000000D+00  0.00000000D+00 -0.00000000D+00  0.00000000D+00 -0.00000000D+00
  0.00000000D+00 -0.00000000D+00  0.28291138D-06  0.28291138D-06  0.28291138D-06
 -0.00000000D+00  0.00000000D+00 -0.00000000D+00  0.20838983D-05  0.20838983D-05
  0.20838983D-05  0.00000000D+00 -0.00000000D+00  0.00000000D+00
MO   12     MO 0.0        OCC NO =    0.0000000  ORB. ENERGY =    0.000937
 -0.00000000D+00  0.00000000D+00  0.00000000D+00 -0.00000000D+00  0.00000000D+00
 -0.00000000D+00  0.00000000D+00 -0.00000000D+00  0.00000000D+00 -0.00000000D+00
  0.54824583D-07  0.43316956D-07 -0.12536570D-04 -0.40606884D-06 -0.32083578D-06
  0.92854485D-04  0.32260490D-06  0.25489180D-06 -0.73769192D-04 -0.22345537D-06
 -0.17654650D-06  0.51095998D-04  0.00000000D+00  0.00000000D+00  0.00000000D+00
 -0.00000000D+00  0.00000000D+00  0.00000000D+00  0.00000000D+00  0.00000000D+00
  0.00000000D+00  0.00000000D+00  0.00000000D+00 -0.00000000D+00
MO   13     MO 0.0        OCC NO =    0.0000000  ORB. ENERGY =    0.000937
 -0.00000000D+00  0.00000000D+00  0.00000000D+00 -0.00000000D+00  0.00000000D+00
 -0.00000000D+00 -0.00000000D+00  0.00000000D+00 -0.00000000D+00  0.00000000D+00
 -0.36350545D-07  0.12536637D-04  0.43158307D-07  0.26923750D-06 -0.92854986D-04
 -0.31966012D-06 -0.21389820D-06  0.73769592D-04  0.25395634D-06  0.14815729D-06
 -0.51096279D-04 -0.17590607D-06  0.00000000D+00  0.00000000D+00 -0.00000000D+00
  0.00000000D+00 -0.00000000D+00  0.00000000D+00  0.00000000D+00 -0.00000000D+00
  0.00000000D+00 -0.00000000D+00  0.00000000D+00 -0.00000000D+00
MO   14     MO 0.0        OCC NO =    0.0000000  ORB. ENERGY =    0.000937
 -0.00000000D+00  0.00000000D+00  0.00000000D+00 -0.00000000D+00  0.00000000D+00
 -0.00000000D+00 -0.00000000D+00  0.00000000D+00 -0.00000000D+00  0.00000000D+00
 -0.12536592D-04 -0.36161250D-07 -0.54949592D-07  0.92854649D-04  0.26783504D-06
  0.40699518D-06 -0.73769324D-04 -0.21278498D-06 -0.32334038D-06  0.51096086D-04
  0.14738527D-06  0.22396420D-06 -0.00000000D+00  0.00000000D+00  0.00000000D+00
  0.00000000D+00 -0.00000000D+00 -0.00000000D+00  0.00000000D+00  0.00000000D+00
  0.00000000D+00 -0.00000000D+00  0.00000000D+00  0.00000000D+00
MO   15     MO 0.0        OCC NO =    0.0000000  ORB. ENERGY =    0.001271
 -0.00000000D+00 -0.00000000D+00  0.00000000D+00 -0.00000000D+00  0.00000000D+00
 -0.00000000D+00  0.00000000D+00 -0.00000000D+00  0.00000000D+00 -0.00000000D+00
  0.00000000D+00  0.00000000D+00  0.00000000D+00 -0.00000000D+00 -0.00000000D+00
 -0.00000000D+00  0.00000000D+00 -0.00000000D+00 -0.00000000D+00 -0.00000000D+00
  0.00000000D+00  0.00000000D+00  0.46404107D-07 -0.64189356D-07  0.17785249D-07
  0.72434253D-08 -0.23660510D-07 -0.12756500D-06 -0.64821957D-06  0.89666195D-06
 -0.24844238D-06 -0.10118350D-06  0.33051400D-06  0.17819572D-05
MO   16     MO 0.0        OCC NO =    0.0000000  ORB. ENERGY =    0.001271
 -0.00000000D+00 -0.00000000D+00  0.00000000D+00 -0.00000000D+00  0.00000000D+00
 -0.00000000D+00  0.00000000D+00  0.00000000D+00  0.00000000D+00  0.00000000D+00
 -0.00000000D+00 -0.00000000D+00  0.00000000D+00  0.00000000D+00  0.00000000D+00
 -0.00000000D+00 -0.00000000D+00  0.00000000D+00  0.00000000D+00 -0.00000000D+00
  0.00000000D+00  0.00000000D+00  0.56426672D-07 -0.70432351D-07  0.14005679D-07
 -0.21306073D-08  0.28193488D-09  0.11566619D-06 -0.78822493D-06  0.98387044D-06
 -0.19564552D-06  0.29762505D-07 -0.39383644D-08 -0.16157426D-05
MO   17     MO 0.0        OCC NO =    0.0000000  ORB. ENERGY =    0.001271
 -0.00000000D+00  0.00000000D+00 -0.00000000D+00  0.00000000D+00 -0.00000000D+00
  0.00000000D+00 -0.00000000D+00  0.00000000D+00  0.00000000D+00 -0.00000000D+00
  0.00000000D+00 -0.00000000D+00 -0.00000000D+00  0.00000000D+00  0.00000000D+00
  0.00000000D+00 -0.00000000D+00 -0.00000000D+00 -0.00000000D+00  0.00000000D+00
 -0.00000000D+00  0.00000000D+00 -0.74497954D-08  0.83828822D-08 -0.93308679D-09
  0.12470376D-07 -0.17122917D-06  0.18350815D-07  0.10406629D-06 -0.11710059D-06
  0.13034311D-07 -0.17419886D-06  0.23919025D-05 -0.25634277D-06
MO   18     MO 0.0        OCC NO =    0.0000000  ORB. ENERGY =    0.001271
  0.00000000D+00 -0.00000000D+00  0.00000000D+00  0.00000000D+00  0.00000000D+00
 -0.00000000D+00  0.00000000D+00  0.00000000D+00  0.00000000D+00  0.00000000D+00
 -0.00000000D+00  0.00000000D+00  0.00000000D+00  0.00000000D+00 -0.00000000D+00
 -0.00000000D+00  0.00000000D+00  0.00000000D+00 -0.00000000D+00 -0.00000000D+00
  0.00000000D+00  0.00000000D+00  0.96233813D-09 -0.11089240D-08  0.14658588D-09
 -0.17277747D-06 -0.13363812D-07 -0.54749863D-08 -0.13442915D-07  0.15490570D-07
 -0.20476554D-08  0.24135308D-05  0.18667927D-06  0.76480145D-07
MO   19     MO 0.0        OCC NO =    0.0000000  ORB. ENERGY =    0.001271
  0.00000000D+00 -0.00000000D+00 -0.00000000D+00  0.00000000D+00 -0.00000000D+00
  0.00000000D+00 -0.00000000D+00  0.00000000D+00 -0.00000000D+00  0.00000000D+00
  0.00000000D+00  0.00000000D+00  0.00000000D+00 -0.00000000D+00 -0.00000000D+00
 -0.00000000D+00  0.00000000D+00 -0.00000000D+00  0.00000000D+00 -0.00000000D+00
  0.00000000D+00  0.00000000D+00  0.68028838D-07  0.29481636D-07 -0.97510473D-07
  0.63606397D-09 -0.26566011D-08 -0.68373912D-08 -0.95029574D-06 -0.41182936D-06
  0.13621251D-05 -0.88851872D-08  0.37110109D-07  0.95511619D-07
MO   20     MO 0.0        OCC NO =    0.0000000  ORB. ENERGY =    0.001759
  0.72502574D-02  0.42085824D-03 -0.76062467D-02  0.26905987D-02 -0.18183206D-02
  0.70982368D-03 -0.12477478D-02 -0.19246196D-04 -0.29125623D-03  0.21661687D-04
 -0.00000000D+00  0.00000000D+00  0.00000000D+00  0.00000000D+00 -0.00000000D+00
 -0.00000000D+00 -0.00000000D+00  0.00000000D+00 -0.00000000D+00 -0.00000000D+00
 -0.00000000D+00 -0.00000000D+00 -0.25130373D-06 -0.25130373D-06 -0.25130373D-06
 -0.00000000D+00 -0.00000000D+00 -0.00000000D+00 -0.36736947D-05 -0.36736947D-05
 -0.36736947D-05  0.00000000D+00  0.00000000D+00  0.00000000D+00
MO   21     MO 0.0        OCC NO =    0.0000000  ORB. ENERGY =    0.003079
 -0.00000000D+00 -0.00000000D+00  0.00000000D+00 -0.00000000D+00  0.00000000D+00
 -0.00000000D+00 -0.00000000D+00  0.00000000D+00 -0.00000000D+00  0.00000000D+00
 -0.96705580D-08  0.38851856D-07 -0.66601193D-05  0.11038668D-06 -0.44348552D-06
  0.76023743D-04 -0.56421583D-06  0.22667734D-05 -0.38857794D-03  0.31782580D-06
 -0.12768828D-05  0.21888789D-03  0.00000000D+00  0.00000000D+00  0.00000000D+00
  0.00000000D+00  0.00000000D+00  0.00000000D+00  0.00000000D+00  0.00000000D+00
  0.00000000D+00 -0.00000000D+00 -0.00000000D+00 -0.00000000D+00
MO   22     MO 0.0        OCC NO =    0.0000000  ORB. ENERGY =    0.003079
 -0.00000000D+00 -0.00000000D+00  0.00000000D+00 -0.00000000D+00  0.00000000D+00
 -0.00000000D+00  0.00000000D+00 -0.00000000D+00  0.00000000D+00 -0.00000000D+00
  0.54771415D-08  0.66601241D-05  0.38844016D-07 -0.62520225D-07 -0.76023798D-04
 -0.44339491D-06  0.31955632D-06  0.38857822D-03  0.22663112D-05 -0.18001180D-06
 -0.21888805D-03 -0.12766284D-05  0.00000000D+00  0.00000000D+00  0.00000000D+00
 -0.00000000D+00  0.00000000D+00 -0.00000000D+00  0.00000000D+00  0.00000000D+00
  0.00000000D+00  0.00000000D+00 -0.00000000D+00  0.00000000D+00
MO   23     MO 0.0        OCC NO =    0.0000000  ORB. ENERGY =    0.003079
  0.00000000D+00  0.00000000D+00 -0.00000000D+00  0.00000000D+00 -0.00000000D+00
  0.00000000D+00 -0.00000000D+00  0.00000000D+00 -0.00000000D+00  0.00000000D+00
  0.66602305D-05 -0.54206953D-08 -0.97023447D-08 -0.76025011D-04  0.61875275D-07
  0.11074968D-06  0.38858442D-03 -0.31626110D-06 -0.56607119D-06 -0.21889154D-03
  0.17815194D-06  0.31886978D-06 -0.00000000D+00  0.00000000D+00 -0.00000000D+00
  0.00000000D+00 -0.00000000D+00  0.00000000D+00 -0.00000000D+00 -0.00000000D+00
 -0.00000000D+00 -0.00000000D+00  0.00000000D+00 -0.00000000D+00
MO   24     MO 0.0        OCC NO =    0.0000000  ORB. ENERGY =    0.003784
 -0.54926799D-02 -0.80008809D-02  0.22511199D-01 -0.81875218D-02  0.36726442D-02
 -0.31868103D-02  0.60824501D-03 -0.19533407D-02  0.59350120D-03 -0.42808183D-03
  0.00000000D+00 -0.00000000D+00  0.00000000D+00 -0.00000000D+00  0.00000000D+00
 -0.00000000D+00  0.00000000D+00 -0.00000000D+00  0.00000000D+00 -0.00000000D+00
 -0.00000000D+00 -0.00000000D+00  0.18091573D-06  0.18091573D-06  0.18091573D-06
  0.00000000D+00  0.00000000D+00  0.00000000D+00  0.38477876D-05  0.38477876D-05
  0.38477876D-05 -0.00000000D+00 -0.00000000D+00 -0.00000000D+00
MO   25     MO 0.0        OCC NO =    0.0000000  ORB. ENERGY =    0.009304
  0.33488530D-02  0.72119810D-02 -0.24507186D-01  0.31669352D-01 -0.16473185D-01
  0.72373387D-02 -0.79039244D-02  0.16372213D-02 -0.22124365D-02  0.50616575D-03
  0.00000000D+00 -0.00000000D+00 -0.00000000D+00 -0.00000000D+00  0.00000000D+00
  0.00000000D+00  0.00000000D+00 -0.00000000D+00 -0.00000000D+00 -0.00000000D+00
  0.00000000D+00  0.00000000D+00 -0.10987079D-06 -0.10987079D-06 -0.10987079D-06
 -0.00000000D+00 -0.00000000D+00  0.00000000D+00 -0.25825613D-05 -0.25825613D-05
 -0.25825613D-05  0.00000000D+00  0.00000000D+00 -0.00000000D+00
MO   26     MO 0.0        OCC NO =    0.0000000  ORB. ENERGY =    0.010008
 -0.00000000D+00 -0.00000000D+00  0.00000000D+00 -0.00000000D+00  0.00000000D+00
 -0.00000000D+00  0.00000000D+00  0.00000000D+00  0.00000000D+00  0.00000000D+00
  0.82879122D-06 -0.28492968D-05  0.12855022D-05 -0.10125012D-04  0.34808720D-04
 -0.15704465D-04  0.79910455D-04 -0.27472369D-03  0.12394563D-03 -0.34733429D-03
  0.11940985D-02 -0.53873509D-03  0.00000000D+00  0.00000000D+00  0.00000000D+00
  0.00000000D+00 -0.00000000D+00  0.00000000D+00  0.00000000D+00  0.00000000D+00
  0.00000000D+00 -0.00000000D+00  0.00000000D+00 -0.00000000D+00
MO   27     MO 0.0        OCC NO =    0.0000000  ORB. ENERGY =    0.010008
  0.00000000D+00  0.00000000D+00 -0.00000000D+00  0.00000000D+00 -0.00000000D+00
  0.00000000D+00 -0.00000000D+00  0.00000000D+00 -0.00000000D+00  0.00000000D+00
 -0.55784583D-06  0.11737494D-05  0.29612537D-05  0.68149786D-05 -0.14339226D-04
 -0.36176453D-04 -0.53786411D-04  0.11317064D-03  0.28551836D-03  0.23378499D-03
 -0.49190114D-03 -0.12410180D-02  0.00000000D+00 -0.00000000D+00  0.00000000D+00
 -0.00000000D+00 -0.00000000D+00 -0.00000000D+00 -0.00000000D+00 -0.00000000D+00
 -0.00000000D+00  0.00000000D+00  0.00000000D+00  0.00000000D+00
MO   28     MO 0.0        OCC NO =    0.0000000  ORB. ENERGY =    0.010008
  0.00000000D+00  0.00000000D+00 -0.00000000D+00  0.00000000D+00 -0.00000000D+00
  0.00000000D+00 -0.00000000D+00  0.00000000D+00 -0.00000000D+00  0.00000000D+00
  0.30756813D-05  0.98067489D-06  0.19069262D-06 -0.37574370D-04 -0.11980513D-04
 -0.23296163D-05  0.29655126D-03  0.94554778D-04  0.18386219D-04 -0.12889730D-02
 -0.41098647D-03 -0.79916503D-04 -0.00000000D+00 -0.00000000D+00 -0.00000000D+00
 -0.00000000D+00 -0.00000000D+00 -0.00000000D+00 -0.00000000D+00 -0.00000000D+00
 -0.00000000D+00 -0.00000000D+00  0.00000000D+00  0.00000000D+00
MO   29     MO 0.0        OCC NO =    0.0000000  ORB. ENERGY =    0.026674
 -0.18612766D-02 -0.41210894D-02  0.15403345D-01 -0.33302993D-01  0.64356604D-01
 -0.40453402D-01  0.14772068D-01 -0.17647563D-01  0.72812914D-02 -0.39581077D-02
 -0.00000000D+00 -0.00000000D+00  0.00000000D+00  0.00000000D+00  0.00000000D+00
 -0.00000000D+00 -0.00000000D+00 -0.00000000D+00  0.00000000D+00  0.00000000D+00
  0.00000000D+00  0.00000000D+00  0.61483013D-07  0.61483013D-07  0.61483013D-07
  0.00000000D+00  0.00000000D+00  0.00000000D+00  0.14347680D-05  0.14347680D-05
  0.14347680D-05 -0.00000000D+00  0.00000000D+00 -0.00000000D+00
MO   30     MO 0.0        OCC NO =    0.0000000  ORB. ENERGY =    0.084728
  0.10041953D-02  0.21569299D-02 -0.82065248D-02  0.20083685D-01 -0.64100060D-01
  0.14712189D+00 -0.11058851D+00  0.37449348D-01 -0.29925816D-01  0.93267121D-02
 -0.00000000D+00  0.00000000D+00 -0.00000000D+00  0.00000000D+00 -0.00000000D+00
  0.00000000D+00 -0.00000000D+00  0.00000000D+00 -0.00000000D+00  0.00000000D+00
 -0.00000000D+00  0.00000000D+00 -0.33325584D-07 -0.33325584D-07 -0.33325584D-07
 -0.00000000D+00 -0.00000000D+00 -0.00000000D+00 -0.76425578D-06 -0.76425578D-06
 -0.76425578D-06  0.00000000D+00  0.00000000D+00  0.00000000D+00
MO   31     MO 0.0        OCC NO =    0.0000000  ORB. ENERGY =    0.287848
  0.52549615D-03  0.11056674D-02 -0.42043281D-02  0.10286000D-01 -0.36551228D-01
  0.13324472D+00 -0.34071148D+00  0.29519416D+00 -0.11600779D+00  0.55046349D-01
  0.00000000D+00  0.00000000D+00 -0.00000000D+00 -0.00000000D+00 -0.00000000D+00
  0.00000000D+00  0.00000000D+00  0.00000000D+00 -0.00000000D+00 -0.00000000D+00
 -0.00000000D+00  0.00000000D+00 -0.17475681D-07 -0.17475681D-07 -0.17475681D-07
 -0.00000000D+00  0.00000000D+00 -0.00000000D+00 -0.39698078D-06 -0.39698078D-06
 -0.39698078D-06 -0.00000000D+00 -0.00000000D+00  0.00000000D+00
MO   32     MO 0.0        OCC NO =    0.0000000  ORB. ENERGY =    0.980556
 -0.26901618D-03 -0.56105255D-03  0.21298509D-02 -0.51481816D-02  0.18223043D-01
 -0.72244763D-01  0.27569619D+00 -0.74151392D+00  0.61847783D+00 -0.16022040D+00
  0.00000000D+00 -0.00000000D+00  0.00000000D+00 -0.00000000D+00  0.00000000D+00
 -0.00000000D+00  0.00000000D+00 -0.00000000D+00  0.00000000D+00 -0.00000000D+00
  0.00000000D+00 -0.00000000D+00  0.89531813D-08  0.89531813D-08  0.89531813D-08
 -0.00000000D+00 -0.00000000D+00  0.00000000D+00  0.20261314D-06  0.20261314D-06
  0.20261314D-06  0.00000000D+00 -0.00000000D+00 -0.00000000D+00
MO   33     MO 0.0        OCC NO =    0.0000000  ORB. ENERGY =    3.022230
 -0.14313742D-03 -0.29759999D-03  0.11288541D-02 -0.27124189D-02  0.95040858D-02
 -0.37521951D-01  0.15340099D+00 -0.58676797D+00  0.15223021D+01 -0.96722910D+00
 -0.00000000D+00 -0.00000000D+00  0.00000000D+00  0.00000000D+00  0.00000000D+00
 -0.00000000D+00 -0.00000000D+00 -0.00000000D+00  0.00000000D+00  0.00000000D+00
  0.00000000D+00 -0.00000000D+00  0.47649909D-08  0.47649909D-08  0.47649909D-08
 -0.00000000D+00 -0.00000000D+00  0.00000000D+00  0.10769394D-06  0.10769394D-06
  0.10769394D-06  0.00000000D+00  0.00000000D+00 -0.00000000D+00
MO   34     MO 0.0        OCC NO =    0.0000000  ORB. ENERGY =   10.832700
 -0.75813959D-04 -0.15741457D-03  0.59686309D-03 -0.14297181D-02  0.49747768D-02
 -0.19380166D-01  0.78173484D-01 -0.31257576D+00  0.11085691D+01 -0.23392274D+01
  0.00000000D+00 -0.00000000D+00  0.00000000D+00 -0.00000000D+00  0.00000000D+00
 -0.00000000D+00  0.00000000D+00 -0.00000000D+00  0.00000000D+00 -0.00000000D+00
  0.00000000D+00 -0.00000000D+00  0.25240818D-08  0.25240818D-08  0.25240818D-08
 -0.00000000D+00 -0.00000000D+00  0.00000000D+00  0.57015670D-07  0.57015670D-07
  0.57015670D-07  0.00000000D+00  0.00000000D+00  0.00000000D+00
END DATA
 THE  HF ENERGY =    -14.571870409350 THE VIRIAL(-V/T)=   2.00003292


 $MOSPIN $END
 3 3 3 3 3 3 3 3 3 3 3 3 3 3 3 3 3 3 3 3 3 3 3 3 3 3 3 3 3 3 3 3 3 3


