[Molden Format]
[Title]
 Molden2AIM, Version 3.1.0 (02/25/2015)           Time: Wed Dec  4 18:42:34 2024

[Atoms] AU
E+       1       4     0.00000000     0.00000000     0.00000000
[GTO]
    1 0
 S   1 1.0
    0.1000000000D-03      0.1000000000D+01
 S   1 1.0
    0.3000000000D-03      0.1000000000D+01
 S   1 1.0
    0.9000000000D-03      0.1000000000D+01
 S   1 1.0
    0.2700000000D-02      0.1000000000D+01
 S   1 1.0
    0.8100000000D-02      0.1000000000D+01
 S   1 1.0
    0.2430000000D-01      0.1000000000D+01
 S   1 1.0
    0.7290000000D-01      0.1000000000D+01
 S   1 1.0
    0.2187000000D+00      0.1000000000D+01
 S   1 1.0
    0.6561000000D+00      0.1000000000D+01
 S   1 1.0
    0.1968300000D+01      0.1000000000D+01
 P   1 1.0
    0.1000000000D-03      0.1000000000D+01
 P   1 1.0
    0.3000000000D-03      0.1000000000D+01
 P   1 1.0
    0.9000000000D-03      0.1000000000D+01
 P   1 1.0
    0.2700000000D-02      0.1000000000D+01
 D   1 1.0
    0.1000000000D-03      0.1000000000D+01
 D   1 1.0
    0.3000000000D-03      0.1000000000D+01


[MO]
 Ene=          0.00007546
 Spin= Alpha
 Occup=        1.00000000
    1       -1.9321508800
    2        0.7021048700
    3        0.1939461100
    4       -0.0383729300
    5        0.0080592600
    6       -0.0038777200
    7       -0.0000643600
    8       -0.0005467900
    9        0.0000525500
   10       -0.0000223600
   11       -0.0000000000
   12       -0.0000000000
   13       -0.0000000000
   14        0.0000000000
   15       -0.0000000000
   16       -0.0000000000
   17       -0.0000000000
   18        0.0000000000
   19       -0.0000000000
   20        0.0000000000
   21       -0.0000000000
   22       -0.0000000000
   23        0.7820899800
   24        0.7820899800
   25        0.7820899800
   26       -0.0000000000
   27        0.0000000000
   28        0.0000000000
   29        0.3635145400
   30        0.3635145400
   31        0.3635145400
   32       -0.0000000000
   33        0.0000000000
   34        0.0000000000
 Ene=          0.00022559
 Spin= Alpha
 Occup=        0.00000000
    1        0.0000000000
    2       -0.0000000000
    3       -0.0000000000
    4        0.0000000000
    5       -0.0000000000
    6       -0.0000000000
    7       -0.0000000000
    8        0.0000000000
    9       -0.0000000000
   10        0.0000000000
   11        0.0036412800
   12        0.0036855100
   13       -1.1870135200
   14       -0.0009900100
   15       -0.0010020300
   16        0.3227306000
   17        0.0002457300
   18        0.0002487200
   19       -0.0801065600
   20       -0.0000473000
   21       -0.0000478800
   22        0.0154206900
   23       -0.0000000000
   24        0.0000000000
   25        0.0000000000
   26       -0.0000000000
   27        0.0000000000
   28       -0.0000000000
   29        0.0000000000
   30       -0.0000000000
   31       -0.0000000000
   32        0.0000000000
   33       -0.0000000000
   34        0.0000000000
 Ene=          0.00022559
 Spin= Alpha
 Occup=        0.00000000
    1        0.0000000000
    2       -0.0000000000
    3       -0.0000000000
    4       -0.0000000000
    5        0.0000000000
    6        0.0000000000
    7        0.0000000000
    8       -0.0000000000
    9       -0.0000000000
   10        0.0000000000
   11       -0.0062220700
   12       -1.1870027400
   13       -0.0037045600
   14        0.0016916800
   15        0.3227276700
   16        0.0010072100
   17       -0.0004199000
   18       -0.0801058300
   19       -0.0002500100
   20        0.0000808300
   21        0.0154205500
   22        0.0000481300
   23        0.0000000000
   24       -0.0000000000
   25       -0.0000000000
   26       -0.0000000000
   27       -0.0000000000
   28        0.0000000000
   29       -0.0000000000
   30        0.0000000000
   31       -0.0000000000
   32        0.0000000000
   33       -0.0000000000
   34       -0.0000000000
 Ene=          0.00022559
 Spin= Alpha
 Occup=        0.00000000
    1       -0.0000000000
    2        0.0000000000
    3        0.0000000000
    4        0.0000000000
    5       -0.0000000000
    6        0.0000000000
    7       -0.0000000000
    8        0.0000000000
    9       -0.0000000000
   10        0.0000000000
   11        1.1870029300
   12       -0.0062333700
   13        0.0036218900
   14       -0.3227277200
   15        0.0016947600
   16       -0.0009847400
   17        0.0801058400
   18       -0.0004206600
   19        0.0002444300
   20       -0.0154205600
   21        0.0000809800
   22       -0.0000470500
   23        0.0000000000
   24       -0.0000000000
   25        0.0000000000
   26       -0.0000000000
   27        0.0000000000
   28        0.0000000000
   29        0.0000000000
   30        0.0000000000
   31        0.0000000000
   32        0.0000000000
   33       -0.0000000000
   34       -0.0000000000
 Ene=          0.00031949
 Spin= Alpha
 Occup=        0.00000000
    1       -6.4179387700
    2        1.6595054000
    3        0.4586703600
    4       -0.0778947500
    5        0.0248419600
    6       -0.0037452100
    7        0.0036955200
    8        0.0001676100
    9        0.0001521500
   10        0.0000004200
   11       -0.0000000000
   12       -0.0000000000
   13       -0.0000000000
   14       -0.0000000000
   15        0.0000000000
   16        0.0000000000
   17        0.0000000000
   18       -0.0000000000
   19       -0.0000000000
   20       -0.0000000000
   21        0.0000000000
   22        0.0000000000
   23        1.4771961400
   24        1.4771961400
   25        1.4771961400
   26        0.0000000000
   27       -0.0000000000
   28       -0.0000000000
   29        0.8488853600
   30        0.8488853600
   31        0.8488853600
   32       -0.0000000000
   33        0.0000000000
   34        0.0000000000
 Ene=          0.00033085
 Spin= Alpha
 Occup=        0.00000000
    1       -0.0000000000
    2        0.0000000000
    3        0.0000000000
    4       -0.0000000000
    5        0.0000000000
    6       -0.0000000000
    7        0.0000000000
    8        0.0000000000
    9        0.0000000000
   10        0.0000000000
   11        0.0000000000
   12        0.0000000000
   13        0.0000000000
   14       -0.0000000000
   15       -0.0000000000
   16       -0.0000000000
   17       -0.0000000000
   18        0.0000000000
   19        0.0000000000
   20       -0.0000000000
   21       -0.0000000000
   22        0.0000000000
   23       -0.6836172000
   24        1.0706963200
   25       -0.3870791200
   26       -0.0144507300
   27        0.0464669100
   28        0.1663776700
   29        0.1115547700
   30       -0.1747195400
   31        0.0631647700
   32        0.0023581100
   33       -0.0075826100
   34       -0.0271500200
 Ene=          0.00033085
 Spin= Alpha
 Occup=        0.00000000
    1       -0.0000000000
    2        0.0000000000
    3        0.0000000000
    4       -0.0000000000
    5        0.0000000000
    6       -0.0000000000
    7        0.0000000000
    8       -0.0000000000
    9        0.0000000000
   10       -0.0000000000
   11       -0.0000000000
   12        0.0000000000
   13       -0.0000000000
   14        0.0000000000
   15       -0.0000000000
   16       -0.0000000000
   17       -0.0000000000
   18        0.0000000000
   19       -0.0000000000
   20        0.0000000000
   21       -0.0000000000
   22        0.0000000000
   23        0.2404548500
   24       -0.1383150800
   25       -0.1021397600
   26       -0.0233246100
   27        0.0864887500
   28        1.0674608400
   29       -0.0392381700
   30        0.0225706800
   31        0.0166674800
   32        0.0038061800
   33       -0.0141135000
   34       -0.1741915700
 Ene=          0.00033085
 Spin= Alpha
 Occup=        0.00000000
    1       -0.0000000000
    2        0.0000000000
    3        0.0000000000
    4       -0.0000000000
    5        0.0000000000
    6       -0.0000000000
    7        0.0000000000
    8        0.0000000000
    9        0.0000000000
   10        0.0000000000
   11        0.0000000000
   12       -0.0000000000
   13       -0.0000000000
   14        0.0000000000
   15        0.0000000000
   16        0.0000000000
   17        0.0000000000
   18        0.0000000000
   19        0.0000000000
   20       -0.0000000000
   21       -0.0000000000
   22        0.0000000000
   23        0.8249602400
   24        0.1969952100
   25       -1.0219554500
   26        0.0020171100
   27        0.0086989600
   28       -0.1727204900
   29       -0.1346195700
   30       -0.0321462900
   31        0.1667658600
   32       -0.0003291600
   33       -0.0014195200
   34        0.0281850600
 Ene=          0.00033085
 Spin= Alpha
 Occup=        0.00000000
    1       -0.0000000000
    2        0.0000000000
    3        0.0000000000
    4       -0.0000000000
    5        0.0000000000
    6       -0.0000000000
    7        0.0000000000
    8       -0.0000000000
    9        0.0000000000
   10        0.0000000000
   11       -0.0000000000
   12        0.0000000000
   13       -0.0000000000
   14        0.0000000000
   15       -0.0000000000
   16        0.0000000000
   17       -0.0000000000
   18        0.0000000000
   19       -0.0000000000
   20        0.0000000000
   21       -0.0000000000
   22        0.0000000000
   23       -0.0038540300
   24        0.0368184600
   25       -0.0329644300
   26        0.0777307500
   27       -1.0907142800
   28        0.0917277200
   29        0.0006289100
   30       -0.0060081500
   31        0.0053792400
   32       -0.0126843400
   33        0.1779861300
   34       -0.0149684100
 Ene=          0.00033085
 Spin= Alpha
 Occup=        0.00000000
    1       -0.0000000000
    2        0.0000000000
    3        0.0000000000
    4       -0.0000000000
    5        0.0000000000
    6       -0.0000000000
    7        0.0000000000
    8        0.0000000000
    9        0.0000000000
   10        0.0000000000
   11       -0.0000000000
   12        0.0000000000
   13        0.0000000000
   14        0.0000000000
   15        0.0000000000
   16       -0.0000000000
   17        0.0000000000
   18        0.0000000000
   19        0.0000000000
   20        0.0000000000
   21       -0.0000000000
   22       -0.0000000000
   23        0.0051460100
   24       -0.0082074700
   25        0.0030614600
   26       -1.0949670100
   27       -0.0798684200
   28       -0.0187409500
   29       -0.0008397400
   30        0.0013393200
   31       -0.0004995800
   32        0.1786801100
   33        0.0130331800
   34        0.0030582100
 Ene=          0.00081487
 Spin= Alpha
 Occup=        0.00000000
    1       -9.9544186800
    2        3.4748405800
    3        0.9355766300
    4       -0.1759471700
    5        0.0369349600
    6       -0.0165578100
    7        0.0002458500
    8       -0.0022224000
    9        0.0002366400
   10       -0.0000917100
   11        0.0000000000
   12       -0.0000000000
   13        0.0000000000
   14       -0.0000000000
   15        0.0000000000
   16       -0.0000000000
   17        0.0000000000
   18       -0.0000000000
   19        0.0000000000
   20       -0.0000000000
   21        0.0000000000
   22       -0.0000000000
   23        1.7188617900
   24        1.7188617900
   25        1.7188617900
   26       -0.0000000000
   27        0.0000000000
   28       -0.0000000000
   29        1.8514196100
   30        1.8514196100
   31        1.8514196100
   32        0.0000000000
   33       -0.0000000000
   34        0.0000000000
 Ene=          0.00093673
 Spin= Alpha
 Occup=        0.00000000
    1       -0.0000000000
    2        0.0000000000
    3        0.0000000000
    4       -0.0000000000
    5        0.0000000000
    6       -0.0000000000
    7        0.0000000000
    8       -0.0000000000
    9        0.0000000000
   10       -0.0000000000
   11        0.0038462300
   12        0.0030389100
   13       -0.8795056500
   14       -0.0072153600
   15       -0.0057008700
   16        1.6499137000
   17        0.0014518700
   18        0.0011471300
   19       -0.3319952000
   20       -0.0002547100
   21       -0.0002012400
   22        0.0582427800
   23        0.0000000000
   24        0.0000000000
   25        0.0000000000
   26       -0.0000000000
   27        0.0000000000
   28        0.0000000000
   29        0.0000000000
   30        0.0000000000
   31        0.0000000000
   32        0.0000000000
   33        0.0000000000
   34       -0.0000000000
 Ene=          0.00093673
 Spin= Alpha
 Occup=        0.00000000
    1       -0.0000000000
    2        0.0000000000
    3        0.0000000000
    4       -0.0000000000
    5        0.0000000000
    6       -0.0000000000
    7       -0.0000000000
    8        0.0000000000
    9       -0.0000000000
   10        0.0000000000
   11       -0.0025501800
   12        0.8795104000
   13        0.0030277800
   14        0.0047840300
   15       -1.6499226100
   16       -0.0056799800
   17       -0.0009626400
   18        0.3319970000
   19        0.0011429200
   20        0.0001688800
   21       -0.0582431000
   22       -0.0002005100
   23        0.0000000000
   24        0.0000000000
   25       -0.0000000000
   26        0.0000000000
   27       -0.0000000000
   28        0.0000000000
   29        0.0000000000
   30       -0.0000000000
   31        0.0000000000
   32       -0.0000000000
   33        0.0000000000
   34       -0.0000000000
 Ene=          0.00093673
 Spin= Alpha
 Occup=        0.00000000
    1       -0.0000000000
    2        0.0000000000
    3        0.0000000000
    4       -0.0000000000
    5        0.0000000000
    6       -0.0000000000
    7       -0.0000000000
    8        0.0000000000
    9       -0.0000000000
   10        0.0000000000
   11       -0.8795072000
   12       -0.0025369000
   13       -0.0038550000
   14        1.6499166100
   15        0.0047591100
   16        0.0072318200
   17       -0.3319957900
   18       -0.0009576300
   19       -0.0014551800
   20        0.0582428800
   21        0.0001680000
   22        0.0002552900
   23       -0.0000000000
   24        0.0000000000
   25        0.0000000000
   26        0.0000000000
   27       -0.0000000000
   28       -0.0000000000
   29        0.0000000000
   30        0.0000000000
   31        0.0000000000
   32       -0.0000000000
   33        0.0000000000
   34        0.0000000000
 Ene=          0.00127064
 Spin= Alpha
 Occup=        0.00000000
    1       -0.0000000000
    2       -0.0000000000
    3        0.0000000000
    4       -0.0000000000
    5        0.0000000000
    6       -0.0000000000
    7        0.0000000000
    8       -0.0000000000
    9        0.0000000000
   10       -0.0000000000
   11        0.0000000000
   12        0.0000000000
   13        0.0000000000
   14       -0.0000000000
   15       -0.0000000000
   16       -0.0000000000
   17        0.0000000000
   18       -0.0000000000
   19       -0.0000000000
   20       -0.0000000000
   21        0.0000000000
   22        0.0000000000
   23        0.2819336800
   24       -0.3899900800
   25        0.1080564000
   26        0.0254082000
   27       -0.0829954000
   28       -0.4474674600
   29       -0.5759045200
   30        0.7966307900
   31       -0.2207262700
   32       -0.0519012000
   33        0.1695343000
   34        0.9140395700
 Ene=          0.00127064
 Spin= Alpha
 Occup=        0.00000000
    1       -0.0000000000
    2       -0.0000000000
    3        0.0000000000
    4       -0.0000000000
    5        0.0000000000
    6       -0.0000000000
    7        0.0000000000
    8        0.0000000000
    9        0.0000000000
   10        0.0000000000
   11       -0.0000000000
   12       -0.0000000000
   13        0.0000000000
   14        0.0000000000
   15        0.0000000000
   16       -0.0000000000
   17       -0.0000000000
   18        0.0000000000
   19        0.0000000000
   20       -0.0000000000
   21        0.0000000000
   22        0.0000000000
   23        0.3428269700
   24       -0.4279201400
   25        0.0850931700
   26       -0.0074736600
   27        0.0009889600
   28        0.4057292900
   29       -0.7002909500
   30        0.8741103500
   31       -0.1738194000
   32        0.0152664200
   33       -0.0020201500
   34       -0.8287812000
 Ene=          0.00127064
 Spin= Alpha
 Occup=        0.00000000
    1       -0.0000000000
    2        0.0000000000
    3       -0.0000000000
    4        0.0000000000
    5       -0.0000000000
    6        0.0000000000
    7       -0.0000000000
    8        0.0000000000
    9        0.0000000000
   10       -0.0000000000
   11        0.0000000000
   12       -0.0000000000
   13       -0.0000000000
   14        0.0000000000
   15        0.0000000000
   16        0.0000000000
   17       -0.0000000000
   18       -0.0000000000
   19       -0.0000000000
   20        0.0000000000
   21       -0.0000000000
   22        0.0000000000
   23       -0.0452621200
   24        0.0509312000
   25       -0.0056690800
   26        0.0437430900
   27       -0.6006308900
   28        0.0643702600
   29        0.0924567100
   30       -0.1040369100
   31        0.0115802100
   32       -0.0893538000
   33        1.2269057300
   34       -0.1314888100
 Ene=          0.00127064
 Spin= Alpha
 Occup=        0.00000000
    1        0.0000000000
    2       -0.0000000000
    3        0.0000000000
    4        0.0000000000
    5        0.0000000000
    6       -0.0000000000
    7        0.0000000000
    8        0.0000000000
    9        0.0000000000
   10        0.0000000000
   11       -0.0000000000
   12        0.0000000000
   13        0.0000000000
   14        0.0000000000
   15       -0.0000000000
   16       -0.0000000000
   17        0.0000000000
   18        0.0000000000
   19       -0.0000000000
   20       -0.0000000000
   21        0.0000000000
   22        0.0000000000
   23        0.0058468000
   24       -0.0067374000
   25        0.0008906000
   26       -0.6060619600
   27       -0.0468770500
   28       -0.0192049400
   29       -0.0119432300
   30        0.0137624500
   31       -0.0018192200
   32        1.2379997700
   33        0.0957555200
   34        0.0392298300
 Ene=          0.00127064
 Spin= Alpha
 Occup=        0.00000000
    1        0.0000000000
    2       -0.0000000000
    3       -0.0000000000
    4        0.0000000000
    5       -0.0000000000
    6        0.0000000000
    7       -0.0000000000
    8        0.0000000000
    9       -0.0000000000
   10        0.0000000000
   11        0.0000000000
   12        0.0000000000
   13        0.0000000000
   14       -0.0000000000
   15       -0.0000000000
   16       -0.0000000000
   17        0.0000000000
   18       -0.0000000000
   19        0.0000000000
   20       -0.0000000000
   21        0.0000000000
   22        0.0000000000
   23        0.4133173100
   24        0.1791191900
   25       -0.5924365000
   26        0.0022311600
   27       -0.0093187200
   28       -0.0239839300
   29       -0.8442812200
   30       -0.3658858800
   31        1.2101671000
   32       -0.0045575800
   33        0.0190353100
   34        0.0489918600
 Ene=          0.00175892
 Spin= Alpha
 Occup=        0.00000000
    1       10.1728662200
    2        0.2590507200
    3       -2.0538959300
    4        0.3187249100
    5       -0.0944923400
    6        0.0161821300
    7       -0.0124787500
    8       -0.0000844400
    9       -0.0005605800
   10        0.0000182900
   11       -0.0000000000
   12        0.0000000000
   13        0.0000000000
   14        0.0000000000
   15       -0.0000000000
   16       -0.0000000000
   17       -0.0000000000
   18        0.0000000000
   19       -0.0000000000
   20       -0.0000000000
   21       -0.0000000000
   22       -0.0000000000
   23       -1.5268257500
   24       -1.5268257500
   25       -1.5268257500
   26       -0.0000000000
   27       -0.0000000000
   28       -0.0000000000
   29       -3.2638591300
   30       -3.2638591300
   31       -3.2638591300
   32        0.0000000000
   33        0.0000000000
   34        0.0000000000
 Ene=          0.00307868
 Spin= Alpha
 Occup=        0.00000000
    1       -0.0000000000
    2       -0.0000000000
    3        0.0000000000
    4       -0.0000000000
    5        0.0000000000
    6       -0.0000000000
    7       -0.0000000000
    8        0.0000000000
    9       -0.0000000000
   10        0.0000000000
   11       -0.0006784400
   12        0.0027256600
   13       -0.4672420500
   14        0.0019614400
   15       -0.0078802100
   16        1.3508514500
   17       -0.0025392300
   18        0.0102015200
   19       -1.7487789300
   20        0.0003622800
   21       -0.0014554800
   22        0.2495036700
   23        0.0000000000
   24        0.0000000000
   25        0.0000000000
   26        0.0000000000
   27        0.0000000000
   28        0.0000000000
   29        0.0000000000
   30        0.0000000000
   31        0.0000000000
   32       -0.0000000000
   33       -0.0000000000
   34       -0.0000000000
 Ene=          0.00307868
 Spin= Alpha
 Occup=        0.00000000
    1       -0.0000000000
    2       -0.0000000000
    3        0.0000000000
    4       -0.0000000000
    5        0.0000000000
    6       -0.0000000000
    7        0.0000000000
    8       -0.0000000000
    9        0.0000000000
   10       -0.0000000000
   11        0.0003842500
   12        0.4672423900
   13        0.0027251100
   14       -0.0011109100
   15       -1.3508524200
   16       -0.0078786000
   17        0.0014381500
   18        1.7487802000
   19        0.0101994400
   20       -0.0002051900
   21       -0.2495038500
   22       -0.0014551900
   23        0.0000000000
   24        0.0000000000
   25        0.0000000000
   26       -0.0000000000
   27        0.0000000000
   28       -0.0000000000
   29        0.0000000000
   30        0.0000000000
   31        0.0000000000
   32        0.0000000000
   33       -0.0000000000
   34        0.0000000000
 Ene=          0.00307868
 Spin= Alpha
 Occup=        0.00000000
    1        0.0000000000
    2        0.0000000000
    3       -0.0000000000
    4        0.0000000000
    5       -0.0000000000
    6        0.0000000000
    7       -0.0000000000
    8        0.0000000000
    9       -0.0000000000
   10        0.0000000000
   11        0.4672498500
   12       -0.0003802900
   13       -0.0006806700
   14       -1.3508739700
   15        0.0010994500
   16        0.0019678900
   17        1.7488081000
   18       -0.0014233200
   19       -0.0025475800
   20       -0.2495078300
   21        0.0002030700
   22        0.0003634700
   23       -0.0000000000
   24        0.0000000000
   25       -0.0000000000
   26        0.0000000000
   27       -0.0000000000
   28        0.0000000000
   29       -0.0000000000
   30       -0.0000000000
   31       -0.0000000000
   32       -0.0000000000
   33        0.0000000000
   34       -0.0000000000
 Ene=          0.00378363
 Spin= Alpha
 Occup=        0.00000000
    1       -7.7068018700
    2       -4.9247793000
    3        6.0786431900
    4       -0.9698834600
    5        0.1908556400
    6       -0.0726509700
    7        0.0060830700
    8       -0.0085700100
    9        0.0011423100
   10       -0.0003614500
   11        0.0000000000
   12       -0.0000000000
   13        0.0000000000
   14       -0.0000000000
   15        0.0000000000
   16       -0.0000000000
   17        0.0000000000
   18       -0.0000000000
   19        0.0000000000
   20       -0.0000000000
   21       -0.0000000000
   22       -0.0000000000
   23        1.0991750800
   24        1.0991750800
   25        1.0991750800
   26        0.0000000000
   27        0.0000000000
   28        0.0000000000
   29        3.4185303600
   30        3.4185303600
   31        3.4185303600
   32       -0.0000000000
   33       -0.0000000000
   34       -0.0000000000
 Ene=          0.00930412
 Spin= Alpha
 Occup=        0.00000000
    1        4.6987894800
    2        4.4391880500
    3       -6.6176147300
    4        3.7515113300
    5       -0.8560590600
    6        0.1649924600
    7       -0.0790473000
    8        0.0071830800
    9       -0.0042582700
   10        0.0004273800
   11        0.0000000000
   12       -0.0000000000
   13       -0.0000000000
   14       -0.0000000000
   15        0.0000000000
   16        0.0000000000
   17        0.0000000000
   18       -0.0000000000
   19       -0.0000000000
   20       -0.0000000000
   21        0.0000000000
   22        0.0000000000
   23       -0.6675330900
   24       -0.6675330900
   25       -0.6675330900
   26       -0.0000000000
   27       -0.0000000000
   28        0.0000000000
   29       -2.2944520500
   30       -2.2944520500
   31       -2.2944520500
   32        0.0000000000
   33        0.0000000000
   34       -0.0000000000
 Ene=          0.01000780
 Spin= Alpha
 Occup=        0.00000000
    1       -0.0000000000
    2       -0.0000000000
    3        0.0000000000
    4       -0.0000000000
    5        0.0000000000
    6       -0.0000000000
    7        0.0000000000
    8        0.0000000000
    9        0.0000000000
   10        0.0000000000
   11        0.0581440200
   12       -0.1998930100
   13        0.0901846700
   14       -0.1799094100
   15        0.6185095300
   16       -0.2790496600
   17        0.3596337000
   18       -1.2363826200
   19        0.5578121800
   20       -0.3959158300
   21        1.3611167300
   22       -0.6140878000
   23        0.0000000000
   24        0.0000000000
   25        0.0000000000
   26        0.0000000000
   27       -0.0000000000
   28        0.0000000000
   29        0.0000000000
   30        0.0000000000
   31        0.0000000000
   32       -0.0000000000
   33        0.0000000000
   34       -0.0000000000
 Ene=          0.01000780
 Spin= Alpha
 Occup=        0.00000000
    1        0.0000000000
    2        0.0000000000
    3       -0.0000000000
    4        0.0000000000
    5       -0.0000000000
    6        0.0000000000
    7       -0.0000000000
    8        0.0000000000
    9       -0.0000000000
   10        0.0000000000
   11       -0.0391357900
   12        0.0823446300
   13        0.2077473700
   14        0.1210940600
   15       -0.2547909800
   16       -0.6428125200
   17       -0.2420635200
   18        0.5093197900
   19        1.2849635900
   20        0.2664844200
   21       -0.5607032000
   22       -1.4145988500
   23        0.0000000000
   24       -0.0000000000
   25        0.0000000000
   26       -0.0000000000
   27       -0.0000000000
   28       -0.0000000000
   29       -0.0000000000
   30       -0.0000000000
   31       -0.0000000000
   32        0.0000000000
   33        0.0000000000
   34        0.0000000000
 Ene=          0.01000780
 Spin= Alpha
 Occup=        0.00000000
    1        0.0000000000
    2        0.0000000000
    3       -0.0000000000
    4        0.0000000000
    5       -0.0000000000
    6        0.0000000000
    7       -0.0000000000
    8        0.0000000000
    9       -0.0000000000
   10        0.0000000000
   11        0.2157750600
   12        0.0687994500
   13        0.0133780800
   14       -0.6676518400
   15       -0.2128794600
   16       -0.0413945100
   17        1.3346166700
   18        0.4255398700
   19        0.0827464200
   20       -1.4692612600
   21       -0.4684710200
   22       -0.0910944000
   23       -0.0000000000
   24       -0.0000000000
   25       -0.0000000000
   26       -0.0000000000
   27       -0.0000000000
   28       -0.0000000000
   29       -0.0000000000
   30       -0.0000000000
   31       -0.0000000000
   32       -0.0000000000
   33        0.0000000000
   34        0.0000000000
 Ene=          0.02667440
 Spin= Alpha
 Occup=        0.00000000
    1       -2.6115649300
    2       -2.5366526300
    3        4.1593270100
    4       -3.9450303400
    5        3.3444080800
    6       -0.9222321400
    7        0.1477357400
    8       -0.0774262200
    9        0.0140142800
   10       -0.0033420200
   11       -0.0000000000
   12       -0.0000000000
   13        0.0000000000
   14        0.0000000000
   15        0.0000000000
   16       -0.0000000000
   17       -0.0000000000
   18       -0.0000000000
   19        0.0000000000
   20        0.0000000000
   21        0.0000000000
   22        0.0000000000
   23        0.3735473700
   24        0.3735473700
   25        0.3735473700
   26        0.0000000000
   27        0.0000000000
   28        0.0000000000
   29        1.2747060400
   30        1.2747060400
   31        1.2747060400
   32       -0.0000000000
   33        0.0000000000
   34       -0.0000000000
 Ene=          0.08472790
 Spin= Alpha
 Occup=        0.00000000
    1        1.4089906000
    2        1.3276543000
    3       -2.2159875400
    4        2.3790878300
    5       -3.3310762900
    6        3.3539957300
    7       -1.1059978300
    8        0.1643037900
    9       -0.0575981300
   10        0.0078749900
   11       -0.0000000000
   12        0.0000000000
   13       -0.0000000000
   14        0.0000000000
   15       -0.0000000000
   16        0.0000000000
   17       -0.0000000000
   18        0.0000000000
   19       -0.0000000000
   20        0.0000000000
   21       -0.0000000000
   22        0.0000000000
   23       -0.2024735600
   24       -0.2024735600
   25       -0.2024735600
   26       -0.0000000000
   27       -0.0000000000
   28       -0.0000000000
   29       -0.6789957900
   30       -0.6789957900
   31       -0.6789957900
   32        0.0000000000
   33        0.0000000000
   34        0.0000000000
 Ene=          0.28784800
 Spin= Alpha
 Occup=        0.00000000
    1        0.7373258200
    2        0.6805710700
    3       -1.1352842800
    4        1.2184665700
    5       -1.8994510900
    6        3.0376324200
    7       -3.4074620900
    8        1.2951232000
    9       -0.2232798600
   10        0.0464782700
   11        0.0000000000
   12        0.0000000000
   13       -0.0000000000
   14       -0.0000000000
   15       -0.0000000000