[Molden Format]
[Title]
 Molden2AIM, Version 3.1.0 (02/25/2015)           Time: Wed Dec  4 18:42:34 2024

[Atoms] AU
BE       1       4     0.00000000     0.00000000     0.00000000
[GTO]
    1 0
 S   6 1.0
    0.1682800000D+04      0.2285740532D-02
    0.2517150000D+03      0.1759380410D-01
    0.5741160000D+02      0.8633152009D-01
    0.1651710000D+02      0.2818350656D+00
    0.4853640000D+01      0.6405941491D+00
    0.6268630000D+00      0.1444670336D+00
 S   3 1.0
    0.8309380000D+01      0.1086210323D+00
    0.1740750000D+01      0.9273012759D+00
    0.4858160000D+00     -0.2971690884D-02
 P   3 1.0
    0.8309380000D+01      0.3613440323D-01
    0.1740750000D+01      0.2169580194D+00
    0.4858160000D+00      0.8418390753D+00
 S   1 1.0
    0.1636130000D+00      0.1000000000D+01
 P   1 1.0
    0.1636130000D+00      0.1000000000D+01
 S   1 1.0
    0.5672850000D-01      0.1000000000D+01
 P   1 1.0
    0.5672850000D-01      0.1000000000D+01
 S   1 1.0
    0.2070000000D-01      0.1000000000D+01
 P   1 1.0
    0.2070000000D-01      0.1000000000D+01
 D   1 1.0
    0.2550000000D+00      0.1000000000D+01


[MO]
 Ene=         -4.74176000
 Spin= Alpha
 Occup=        2.00000000
    1        0.5962802100
    2        0.4464431200
    3       -0.0000000000
    4       -0.0000000000
    5       -0.0000000000
    6       -0.0048892800
    7       -0.0000000000
    8        0.0000000000
    9        0.0000000000
   10        0.0014251800
   11       -0.0000000000
   12       -0.0000000000
   13       -0.0000000000
   14       -0.0004289200
   15       -0.0000000000
   16        0.0000000000
   17        0.0000000000
   18        0.0006709100
   19        0.0006709100
   20        0.0006709100
   21        0.0000000000
   22        0.0000000000
   23       -0.0000000000
 Ene=         -0.31867000
 Spin= Alpha
 Occup=        2.00000000
    1        0.1095860500
    2        0.1856938900
    3        0.0000000000
    4        0.0000000000
    5        0.0000000000
    6       -0.5839988200
    7        0.0000000000
    8        0.0000000000
    9       -0.0000000000
   10       -0.5001336700
   11        0.0000000000
   12        0.0000000000
   13        0.0000000000
   14       -0.0223415200
   15        0.0000000000
   16        0.0000000000
   17       -0.0000000000
   18        0.0017725100
   19        0.0017725100
   20        0.0017725100
   21       -0.0000000000
   22       -0.0000000000
   23        0.0000000000
 Ene=          0.02015770
 Spin= Alpha
 Occup=        0.00000000
    1       -0.0000000000
    2       -0.0000000000
    3        0.0194447700
    4        0.0734339200
    5       -0.0015467500
    6        0.0000000000
    7        0.0510301000
    8        0.1927171200
    9       -0.0040592300
   10        0.0000000000
   11        0.0005280600
   12        0.0019942500
   13       -0.0000420100
   14       -0.0000000000
   15        0.2297710100
   16        0.8677389800
   17       -0.0182773300
   18       -0.0000000000
   19        0.0000000000
   20       -0.0000000000
   21        0.0000000000
   22        0.0000000000
   23       -0.0000000000
 Ene=          0.02015770
 Spin= Alpha
 Occup=        0.00000000
    1        0.0000000000
    2        0.0000000000
    3       -0.0056919800
    4        0.0031017500
    5        0.0757034600
    6       -0.0000000000
    7       -0.0149378000
    8        0.0081401100
    9        0.1986732000
   10       -0.0000000000
   11       -0.0001545800
   12        0.0000842300
   13        0.0020558900
   14        0.0000000000
   15       -0.0672597700
   16        0.0366521000
   17        0.8945571300
   18        0.0000000000
   19        0.0000000000
   20        0.0000000000
   21        0.0000000000
   22        0.0000000000
   23        0.0000000000
 Ene=          0.02015770
 Spin= Alpha
 Occup=        0.00000000
    1       -0.0000000000
    2       -0.0000000000
    3       -0.0732293300
    4        0.0192580100
    5       -0.0062950000
    6        0.0000000000
    7       -0.1921802000
    8        0.0505399600
    9       -0.0165203500
   10        0.0000000000
   11       -0.0019887000
   12        0.0005229900
   13       -0.0001709500
   14       -0.0000000000
   15       -0.8653213900
   16        0.2275640600
   17       -0.0743854400
   18       -0.0000000000
   19        0.0000000000
   20       -0.0000000000
   21       -0.0000000000
   22       -0.0000000000
   23        0.0000000000
 Ene=          0.04168910
 Spin= Alpha
 Occup=        0.00000000
    1        0.0307081400
    2        0.0667705800
    3        0.0000000000
    4        0.0000000000
    5       -0.0000000000
    6       -0.0123866900
    7       -0.0000000000
    8       -0.0000000000
    9       -0.0000000000
   10       -1.4854957700
   11       -0.0000000000
   12        0.0000000000
   13       -0.0000000000
   14        1.8493592400
   15       -0.0000000000
   16       -0.0000000000
   17       -0.0000000000
   18        0.0491300700
   19        0.0491300700
   20        0.0491300700
   21        0.0000000000
   22       -0.0000000000
   23       -0.0000000000
 Ene=          0.08862080
 Spin= Alpha
 Occup=        0.00000000
    1        0.0000000000
    2        0.0000000000
    3        0.0120271800
    4       -0.0012106800
    5        0.1732920200
    6        0.0000000000
    7        0.0063489400
    8       -0.0006391000
    9        0.0914778500
   10       -0.0000000000
   11        0.0861516700
   12       -0.0086722300
   13        1.2413047900
   14        0.0000000000
   15       -0.0804802800
   16        0.0081013300
   17       -1.1595894300
   18        0.0000000000
   19        0.0000000000
   20        0.0000000000
   21       -0.0000000000
   22        0.0000000000
   23       -0.0000000000
 Ene=          0.08862080
 Spin= Alpha
 Occup=        0.00000000
    1       -0.0000000000
    2       -0.0000000000
    3       -0.1620853600
    4       -0.0615428000
    5        0.0108194300
    6        0.0000000000
    7       -0.0855620600
    8       -0.0324873800
    9        0.0057113900
   10       -0.0000000000
   11       -1.1610306300
   12       -0.4408360800
   13        0.0775004600
   14        0.0000000000
   15        1.0845997300
   16        0.4118157500
   17       -0.0723985900
   18        0.0000000000
   19       -0.0000000000
   20        0.0000000000
   21        0.0000000000
   22       -0.0000000000
   23        0.0000000000
 Ene=          0.08862080
 Spin= Alpha
 Occup=        0.00000000
    1       -0.0000000000
    2       -0.0000000000
    3        0.0613182100
    4       -0.1624415600
    5       -0.0053906200
    6       -0.0000000000
    7        0.0323688200
    8       -0.0857500800
    9       -0.0028456100
   10        0.0000000000
   11        0.4392273500
   12       -1.1635820800
   13       -0.0386134100
   14       -0.0000000000
   15       -0.4103129200
   16        1.0869832100
   17        0.0360714800
   18       -0.0000000000
   19        0.0000000000
   20       -0.0000000000
   21        0.0000000000
   22       -0.0000000000
   23       -0.0000000000
 Ene=          0.31179500
 Spin= Alpha
 Occup=        0.00000000
    1       -0.1008200400
    2       -0.1206836400
    3        0.0000000000
    4        0.0000000000
    5       -0.0000000000
    6        1.7831298400
    7        0.0000000000
    8        0.0000000000
    9       -0.0000000000
   10       -3.2683230100
   11       -0.0000000000
   12       -0.0000000000
   13        0.0000000000
   14        1.3222294200
   15        0.0000000000
   16        0.0000000000
   17       -0.0000000000
   18        0.2606104700
   19        0.2606104700
   20        0.2606104700
   21        0.0000000000
   22        0.0000000000
   23       -0.0000000000
 Ene=          0.33639500
 Spin= Alpha
 Occup=        0.00000000
    1        0.0000000000
    2        0.0000000000
    3       -0.0009133400
    4        0.0075064900
    5       -0.1919868400
    6       -0.0000000000
    7       -0.0063139800
    8        0.0518929400
    9       -1.3272192800
   10        0.0000000000
   11        0.0085797300
   12       -0.0705144700
   13        1.8034856200
   14       -0.0000000000
   15       -0.0035674600
   16        0.0293200100
   17       -0.7498917000
   18       -0.0000000000
   19       -0.0000000000
   20       -0.0000000000
   21       -0.0000000000
   22        0.0000000000
   23       -0.0000000000
 Ene=          0.33639500
 Spin= Alpha
 Occup=        0.00000000
    1        0.0000000000
    2        0.0000000000
    3       -0.0234269100
    4       -0.1905608700
    5       -0.0073392900
    6       -0.0000000000
    7       -0.1619519400
    8       -1.3173614100
    9       -0.0507370500
   10        0.0000000000
   11        0.2200676200
   12        1.7900903000
   13        0.0689438000
   14       -0.0000000000
   15       -0.0915044100
   16       -0.7443219100
   17       -0.0286669200
   18        0.0000000000
   19       -0.0000000000
   20       -0.0000000000
   21       -0.0000000000
   22        0.0000000000
   23       -0.0000000000
 Ene=          0.33639500
 Spin= Alpha
 Occup=        0.00000000
    1       -0.0000000000
    2       -0.0000000000
    3       -0.1906999600
    4        0.0233738700
    5        0.0018211100
    6        0.0000000000
    7       -1.3183229800
    8        0.1615852800
    9        0.0125894800
   10       -0.0000000000
   11        1.7913969200
   12       -0.2195693900
   13       -0.0171071600
   14        0.0000000000
   15       -0.7448652000
   16        0.0912972400
   17        0.0071131800
   18        0.0000000000
   19       -0.0000000000
   20        0.0000000000
   21       -0.0000000000
   22        0.0000000000
   23       -0.0000000000
 Ene=          0.68344000
 Spin= Alpha
 Occup=        0.00000000
    1       -0.0000000000
    2        0.0000000000
    3        0.0000000000
    4        0.0000000000
    5        0.0000000000
    6       -0.0000000000
    7       -0.0000000000
    8       -0.0000000000
    9       -0.0000000000
   10       -0.0000000000
   11        0.0000000000
   12        0.0000000000
   13        0.0000000000
   14        0.0000000000
   15       -0.0000000000
   16       -0.0000000000
   17       -0.0000000000
   18       -0.3690381500
   19        0.3425427600
   20        0.0264953900
   21       -0.0728736500
   22       -0.1898276300
   23        0.8883526500
 Ene=          0.68344000
 Spin= Alpha
 Occup=        0.00000000
    1        0.0000000000
    2        0.0000000000
    3       -0.0000000000
    4       -0.0000000000
    5        0.0000000000
    6       -0.0000000000
    7        0.0000000000
    8        0.0000000000
    9        0.0000000000
   10        0.0000000000
   11       -0.0000000000
   12       -0.0000000000
   13       -0.0000000000
   14       -0.0000000000
   15        0.0000000000
   16        0.0000000000
   17        0.0000000000
   18       -0.7986840700
   19        0.7764740200
   20        0.0222100500
   21       -0.0088550300
   22        0.1311531100
   23       -0.3939367400
 Ene=          0.68344000
 Spin= Alpha
 Occup=        0.00000000
    1        0.0000000000
    2       -0.0000000000
    3        0.0000000000
    4        0.0000000000
    5       -0.0000000000
    6        0.0000000000
    7       -0.0000000000
    8       -0.0000000000
    9        0.0000000000
   10       -0.0000000000
   11        0.0000000000
   12       -0.0000000000
   13       -0.0000000000
   14        0.0000000000
   15       -0.0000000000
   16        0.0000000000
   17        0.0000000000
   18        0.0543010100
   19       -0.0129482100
   20       -0.0413528100
   21        0.0437770000
   22        0.9705105100
   23        0.2301638300
 Ene=          0.68344000
 Spin= Alpha
 Occup=        0.00000000
    1       -0.0000000000
    2       -0.0000000000
    3        0.0000000000
    4       -0.0000000000
    5       -0.0000000000
    6        0.0000000000
    7        0.0000000000
    8        0.0000000000
    9        0.0000000000
   10       -0.0000000000
   11       -0.0000000000
   12       -0.0000000000
   13       -0.0000000000
   14        0.0000000000
   15        0.0000000000
   16        0.0000000000
   17        0.0000000000
   18        0.0385668000
   19       -0.0301795000
   20       -0.0083873000
   21       -0.9963307700
   22        0.0551712400
   23       -0.0513364000
 Ene=          0.68344000
 Spin= Alpha
 Occup=        0.00000000
    1       -0.0000000000
    2       -0.0000000000
    3       -0.0000000000
    4        0.0000000000
    5        0.0000000000
    6        0.0000000000
    7       -0.0000000000
    8       -0.0000000000
    9       -0.0000000000
   10       -0.0000000000
   11        0.0000000000
   12        0.0000000000
   13        0.0000000000
   14        0.0000000000
   15       -0.0000000000
   16       -0.0000000000
   17       -0.0000000000
   18        0.4706151300
   19        0.5278959100
   20       -0.9985110400
   21        0.0044253200
   22       -0.0427764100
   23        0.0057090500
 Ene=          1.18938000
 Spin= Alpha
 Occup=        0.00000000
    1       -0.0000000000
    2        0.0000000000
    3        0.9328632600
    4        1.0584913600
    5       -0.0750295200
    6       -0.0000000000
    7       -1.1385430900
    8       -1.2918699500
    9        0.0915722000
   10       -0.0000000000
   11        0.7012245400
   12        0.7956579900
   13       -0.0563989800
   14        0.0000000000
   15       -0.2433781300
   16       -0.2761537000
   17        0.0195747300
   18       -0.0000000000
   19        0.0000000000
   20        0.0000000000
   21       -0.0000000000
   22       -0.0000000000
   23       -0.0000000000
 Ene=          1.18938000
 Spin= Alpha
 Occup=        0.00000000
    1       -0.0000000000
    2       -0.0000000000
    3        0.0557472100
    4        0.0508769600
    5        1.4108759800
    6       -0.0000000000
    7       -0.0680384800
    8       -0.0620944300
    9       -1.7219491400
   10        0.0000000000
   11        0.0419046500
   12        0.0382437300
   13        1.0605422000
   14       -0.0000000000
   15       -0.0145440900
   16       -0.0132734800
   17       -0.3680886200
   18        0.0000000000
   19       -0.0000000000
   20       -0.0000000000
   21        0.0000000000
   22        0.0000000000
   23       -0.0000000000
 Ene=          1.18938000
 Spin= Alpha
 Occup=        0.00000000
    1        0.0000000000
    2       -0.0000000000
    3        1.0596818600
    4       -0.9344917500
    5       -0.0081723800
    6        0.0000000000
    7       -1.2933229300
    8        1.1405306300
    9        0.0099742400
   10       -0.0000000000
   11        0.7965528800
   12       -0.7024486600
   13       -0.0061431000
   14       -0.0000000000
   15       -0.2764642900
   16        0.2438029900
   17        0.0021321200
   18       -0.0000000000
   19        0.0000000000
   20        0.0000000000
   21        0.0000000000
   22        0.0000000000
   23       -0.0000000000
 Ene=          1.40533000
 Spin= Alpha
 Occup=        0.00000000
    1        0.1662730400
    2        0.7329296800
    3        0.0000000000
    4        0.0000000000
    5        0.0000000000
    6       -2.9007804500
    7       -0.0000000000
    8       -0.0000000000
    9       -0.0000000000
   10       -1.4063169000
   11        0.0000000000
   12        0.0000000000
   13        0.0000000000
   14        0.4975696200
   15       -0.0000000000
   16       -0.0000000000
   17       -0.0000000000
   18        1.6779527300
   19        1.6779527300
   20        1.6779527300
   21        0.0000000000
   22       -0.0000000000
   23        0.0000000000
 Ene=         10.05720000
 Spin= Alpha
 Occup=        0.00000000
    1       -1.9197775700
    2        2.5708991500
    3        0.0000000000
    4       -0.0000000000
    5        0.0000000000
    6       -2.0284875200
    7        0.0000000000
    8        0.0000000000
    9       -0.0000000000
   10       -0.3771730500
   11        0.0000000000
   12       -0.0000000000
   13        0.0000000000
   14        0.1489961300
   15        0.0000000000
   16        0.0000000000
   17       -0.0000000000
   18        0.8743518800
   19        0.8743518800
   20        0.8743518800
   21       -0.0000000000
   22        0.0000000000
   23        0.0000000000

