[Molden Format]
[Atoms] AU
E+       1       1     0.00000000     0.00000000     0.00000000
[GTO]
  1 0
s  1 1.00
   1.0000000000E-04   1.0000000000E+00
s  1 1.00
   3.0000000000E-04   1.0000000000E+00
s  1 1.00
   9.0000000000E-04   1.0000000000E+00
s  1 1.00
   2.7000000000E-03   1.0000000000E+00
s  1 1.00
   8.1000000000E-03   1.0000000000E+00
s  1 1.00
   2.4300000000E-02   1.0000000000E+00
s  1 1.00
   7.2900000000E-02   1.0000000000E+00
s  1 1.00
   2.1870000000E-01   1.0000000000E+00
s  1 1.00
   6.5610000000E-01   1.0000000000E+00
s  1 1.00
   1.9683000000E+00   1.0000000000E+00
p  1 1.00
   1.0000000000E-04   1.0000000000E+00
p  1 1.00
   3.0000000000E-04   1.0000000000E+00
p  1 1.00
   9.0000000000E-04   1.0000000000E+00
p  1 1.00
   2.7000000000E-03   1.0000000000E+00
d  1 1.00
   1.0000000000E-04   1.0000000000E+00
d  1 1.00
   3.0000000000E-04   1.0000000000E+00
 
 
[MO]
Ene=    -3.50869E-02
Spin= Alpha
Occup=   1.0000000000
   1      -0.04049634
   2      -0.03453965
   3       0.05700981
   4      -0.05044841
   5       0.23607470
   6       0.40083431
   7       0.57372059
   8      -0.10174569
   9      -0.05464056
  10      -0.00126272
  11       0.00000000
  12       0.00000000
  13       0.00000000
  14       0.00000000
  15      -0.00000000
  16      -0.00000000
  17       0.00000000
  18       0.00000000
  19       0.00000000
  20       0.00000000
  21      -0.00000000
  22      -0.00000000
  23       0.00587555
  24       0.00587555
  25       0.00587555
  26      -0.00000000
  27       0.00000000
  28      -0.00000000
  29       0.01884967
  30       0.01884967
  31       0.01884967
  32       0.00000000
  33       0.00000000
  34       0.00000000
Ene=    -3.81545E-04
Spin= Alpha
Occup=   0.0000000000
   1      -0.83101701
   2      -1.05067464
   3       0.27215865
   4       0.08512505
   5      -0.01132521
   6       0.04530927
   7       0.01919018
   8      -0.00232958
   9      -0.00284579
  10       0.00002422
  11      -0.00000000
  12      -0.00000000
  13      -0.00000000
  14      -0.00000000
  15      -0.00000000
  16       0.00000000
  17      -0.00000000
  18      -0.00000000
  19       0.00000000
  20       0.00000000
  21       0.00000000
  22      -0.00000000
  23       0.09087211
  24       0.09087211
  25       0.09087211
  26       0.00000000
  27       0.00000000
  28      -0.00000000
  29       0.23967118
  30       0.23967118
  31       0.23967118
  32      -0.00000000
  33      -0.00000000
  34       0.00000000
Ene=     7.40638E-05
Spin= Alpha
Occup=   0.0000000000
   1       0.00000000
   2      -0.00000000
   3      -0.00000000
   4       0.00000000
   5      -0.00000000
   6      -0.00000000
   7      -0.00000000
   8       0.00000000
   9       0.00000000
  10       0.00000000
  11       0.56977757
  12       0.15980252
  13      -0.01217536
  14       0.39361159
  15       0.11039417
  16      -0.00841093
  17       0.14916871
  18       0.04183656
  19      -0.00318753
  20      -0.03604798
  21      -0.01011019
  22       0.00077030
  23      -0.00000000
  24      -0.00000000
  25      -0.00000000
  26      -0.00000000
  27       0.00000000
  28       0.00000000
  29      -0.00000000
  30      -0.00000000
  31      -0.00000000
  32       0.00000000
  33       0.00000000
  34       0.00000000
Ene=     7.40638E-05
Spin= Alpha
Occup=   0.0000000000
   1       0.00000000
   2      -0.00000000
   3      -0.00000000
   4       0.00000000
   5      -0.00000000
   6      -0.00000000
   7      -0.00000000
   8       0.00000000
   9       0.00000000
  10       0.00000000
  11      -0.14577112
  12       0.53543535
  13       0.20589157
  14      -0.10070105
  15       0.36988742
  16       0.14223324
  17      -0.03816312
  18       0.14017786
  19       0.05390275
  20       0.00922247
  21      -0.03387526
  22      -0.01302609
  23      -0.00000000
  24      -0.00000000
  25      -0.00000000
  26       0.00000000
  27      -0.00000000
  28      -0.00000000
  29      -0.00000000
  30      -0.00000000
  31      -0.00000000
  32      -0.00000000
  33       0.00000000
  34       0.00000000
Ene=     7.40638E-05
Spin= Alpha
Occup=   0.0000000000
   1      -0.00000000
   2       0.00000000
   3       0.00000000
   4      -0.00000000
   5       0.00000000
   6       0.00000000
   7       0.00000000
   8      -0.00000000
   9       0.00000000
  10      -0.00000000
  11       0.06660229
  12      -0.19520172
  13       0.55479004
  14       0.04600995
  15      -0.13484852
  16       0.38325796
  17       0.01743659
  18      -0.05110413
  19       0.14524495
  20      -0.00421371
  21       0.01234978
  22      -0.03509977
  23       0.00000000
  24       0.00000000
  25       0.00000000
  26       0.00000000
  27      -0.00000000
  28      -0.00000000
  29      -0.00000000
  30       0.00000000
  31       0.00000000
  32      -0.00000000
  33      -0.00000000
  34      -0.00000000
Ene=     1.37061E-04
Spin= Alpha
Occup=   0.0000000000
   1       3.95414400
   2      -0.81297399
   3      -0.36874031
   4       0.02642112
   5      -0.01146434
   6      -0.00969496
   7      -0.00718648
   8       0.00107953
   9       0.00078186
  10       0.00000962
  11       0.00000000
  12      -0.00000000
  13       0.00000000
  14      -0.00000000
  15      -0.00000000
  16      -0.00000000
  17       0.00000000
  18      -0.00000000
  19       0.00000000
  20       0.00000000
  21       0.00000000
  22      -0.00000000
  23      -1.23271517
  24      -1.23271517
  25      -1.23271517
  26       0.00000000
  27       0.00000000
  28      -0.00000000
  29      -0.65271054
  30      -0.65271054
  31      -0.65271054
  32       0.00000000
  33       0.00000000
  34       0.00000000
Ene=     3.21726E-04
Spin= Alpha
Occup=   0.0000000000
   1       0.00000000
   2       0.00000000
   3      -0.00000000
   4       0.00000000
   5      -0.00000000
   6       0.00000000
   7      -0.00000000
   8       0.00000000
   9      -0.00000000
  10       0.00000000
  11       0.00000000
  12      -0.00000000
  13       0.00000000
  14      -0.00000000
  15       0.00000000
  16      -0.00000000
  17      -0.00000000
  18       0.00000000
  19      -0.00000000
  20       0.00000000
  21       0.00000000
  22      -0.00000000
  23       0.84353073
  24      -0.89805957
  25       0.05452884
  26       0.13701871
  27       0.26105848
  28       0.08871158
  29      -0.07382042
  30       0.07859244
  31      -0.00477202
  32      -0.01199100
  33      -0.02284617
  34      -0.00776347
Ene=     3.21726E-04
Spin= Alpha
Occup=   0.0000000000
   1      -0.00000000
   2      -0.00000000
   3       0.00000000
   4      -0.00000000
   5       0.00000000
   6      -0.00000000
   7       0.00000000
   8      -0.00000000
   9       0.00000000
  10      -0.00000000
  11      -0.00000000
  12       0.00000000
  13       0.00000000
  14       0.00000000
  15      -0.00000000
  16      -0.00000000
  17      -0.00000000
  18      -0.00000000
  19       0.00000000
  20       0.00000000
  21       0.00000000
  22      -0.00000000
  23      -0.25581567
  24       0.26053519
  25      -0.00471952
  26       0.48790329
  27       0.88380703
  28       0.02747527
  29       0.02238735
  30      -0.02280038
  31       0.00041302
  32      -0.04269818
  33      -0.07734515
  34      -0.00240446
Ene=     3.21726E-04
Spin= Alpha
Occup=   0.0000000000
   1      -0.00000000
   2       0.00000000
   3       0.00000000
   4      -0.00000000
   5       0.00000000
   6      -0.00000000
   7      -0.00000000
   8       0.00000000
   9       0.00000000
  10       0.00000000
  11      -0.00000000
  12      -0.00000000
  13       0.00000000
  14      -0.00000000
  15       0.00000000
  16       0.00000000
  17       0.00000000
  18       0.00000000
  19      -0.00000000
  20       0.00000000
  21       0.00000000
  22       0.00000000
  23      -0.01358208
  24       0.00795558
  25       0.00562650
  26      -0.92171640
  27       0.50206650
  28       0.08364336
  29       0.00118862
  30      -0.00069622
  31      -0.00049240
  32       0.08066274
  33      -0.04393765
  34      -0.00731993
Ene=     3.21726E-04
Spin= Alpha
Occup=   0.0000000000
   1       0.00000000
   2      -0.00000000
   3       0.00000000
   4       0.00000000
   5       0.00000000
   6       0.00000000
   7       0.00000000
   8      -0.00000000
   9       0.00000000
  10      -0.00000000
  11      -0.00000000
  12      -0.00000000
  13      -0.00000000
  14       0.00000000
  15       0.00000000
  16       0.00000000
  17      -0.00000000
  18       0.00000000
  19      -0.00000000
  20       0.00000000
  21      -0.00000000
  22       0.00000000
  23       0.08438504
  24      -0.05136684
  25      -0.03301820
  26      -0.04926629
  27       0.08594052
  28      -1.04487721
  29      -0.00738484
  30       0.00449530
  31       0.00288954
  32       0.00431147
  33      -0.00752097
  34       0.09144098
Ene=     3.21726E-04
Spin= Alpha
Occup=   0.0000000000
   1      -0.00000000
   2       0.00000000
   3      -0.00000000
   4      -0.00000000
   5      -0.00000000
   6      -0.00000000
   7      -0.00000000
   8       0.00000000
   9       0.00000000
  10       0.00000000
  11      -0.00000000
  12       0.00000000
  13      -0.00000000
  14      -0.00000000
  15      -0.00000000
  16       0.00000000
  17       0.00000000
  18      -0.00000000
  19      -0.00000000
  20      -0.00000000
  21      -0.00000000
  22      -0.00000000
  23      -0.56966949
  24      -0.48137612
  25       1.05104561
  26      -0.00153128
  27      -0.00956319
  28      -0.03775122
  29       0.04985384
  30       0.04212696
  31      -0.09198080
  32       0.00013401
  33       0.00083691
  34       0.00330375
Ene=     4.24512E-04
Spin= Alpha
Occup=   0.0000000000
   1       0.00000000
   2      -0.00000000
   3      -0.00000000
   4       0.00000000
   5       0.00000000
   6       0.00000000
   7       0.00000000
   8      -0.00000000
   9      -0.00000000
  10      -0.00000000
  11       0.13441959
  12       0.00915921
  13      -1.28628506
  14      -0.13494992
  15      -0.00919534
  16       1.29135987
  17       0.00136361
  18       0.00009292
  19      -0.01304866
  20       0.00006883
  21       0.00000469
  22      -0.00065866
  23       0.00000000
  24      -0.00000000
  25      -0.00000000
  26       0.00000000
  27       0.00000000
  28       0.00000000
  29      -0.00000000
  30       0.00000000
  31      -0.00000000
  32      -0.00000000
  33      -0.00000000
  34      -0.00000000
Ene=     4.24512E-04
Spin= Alpha
Occup=   0.0000000000
   1      -0.00000000
   2       0.00000000
   3      -0.00000000
   4      -0.00000000
   5      -0.00000000
   6      -0.00000000
   7      -0.00000000
   8       0.00000000
   9      -0.00000000
  10       0.00000000
  11      -0.38056699
  12       1.23567444
  13      -0.03097125
  14       0.38206845
  15      -1.24054958
  16       0.03109344
  17      -0.00386065
  18       0.01253525
  19      -0.00031419
  20      -0.00019488
  21       0.00063275
  22      -0.00001586
  23       0.00000000
  24      -0.00000000
  25      -0.00000000
  26      -0.00000000
  27      -0.00000000
  28      -0.00000000
  29      -0.00000000
  30       0.00000000
  31       0.00000000
  32       0.00000000
  33       0.00000000
  34       0.00000000
Ene=     4.24512E-04
Spin= Alpha
Occup=   0.0000000000
   1       0.00000000
   2      -0.00000000
   3      -0.00000000
   4       0.00000000
   5      -0.00000000
   6       0.00000000
   7      -0.00000000
   8       0.00000000
   9      -0.00000000
  10       0.00000000
  11      -1.22873183
  12      -0.38171529
  13      -0.13112322
  14       1.23357958
  15       0.38322128
  16       0.13164054
  17      -0.01246482
  18      -0.00387229
  19      -0.00133017
  20      -0.00062919
  21      -0.00019546
  22      -0.00006714
  23       0.00000000
  24      -0.00000000
  25       0.00000000
  26      -0.00000000
  27      -0.00000000
  28       0.00000000
  29      -0.00000000
  30       0.00000000
  31      -0.00000000
  32       0.00000000
  33      -0.00000000
  34       0.00000000
Ene=     5.93671E-04
Spin= Alpha
Occup=   0.0000000000
   1      -9.71802006
   2       3.63824102
   3       0.76407758
   4      -0.21927734
   5       0.04384139
   6      -0.04054015
   7      -0.00966335
   8       0.00067702
   9       0.00210218
  10      -0.00005596
  11      -0.00000000
  12      -0.00000000
  13      -0.00000000
  14       0.00000000
  15       0.00000000
  16       0.00000000
  17      -0.00000000
  18       0.00000000
  19      -0.00000000
  20       0.00000000
  21      -0.00000000
  22       0.00000000
  23       1.84058730
  24       1.84058730
  25       1.84058730
  26       0.00000000
  27      -0.00000000
  28      -0.00000000
  29       1.42658764
  30       1.42658764
  31       1.42658764
  32      -0.00000000
  33       0.00000000
  34       0.00000000
Ene=     8.82355E-04
Spin= Alpha
Occup=   0.0000000000
   1       0.00000000
   2      -0.00000000
   3      -0.00000000
   4       0.00000000
   5      -0.00000000
   6       0.00000000
   7      -0.00000000
   8       0.00000000
   9      -0.00000000
  10       0.00000000
  11      -0.00000000
  12       0.00000000
  13      -0.00000000
  14       0.00000000
  15      -0.00000000
  16       0.00000000
  17       0.00000000
  18      -0.00000000
  19      -0.00000000
  20      -0.00000000
  21       0.00000000
  22       0.00000000
  23      -0.56689502
  24       0.59002395
  25      -0.02312892
  26      -0.06381949
  27      -0.12449882
  28      -0.02463049
  29       1.03864316
  30      -1.08101908
  31       0.04237592
  32       0.11692761
  33       0.22810193
  34       0.04512703
Ene=     8.82355E-04
Spin= Alpha
Occup=   0.0000000000
   1      -0.00000000
   2      -0.00000000
   3       0.00000000
   4       0.00000000
   5       0.00000000
   6       0.00000000
   7      -0.00000000
   8      -0.00000000
   9       0.00000000
  10      -0.00000000
  11      -0.00000000
  12      -0.00000000
  13      -0.00000000
  14      -0.00000000
  15       0.00000000
  16      -0.00000000
  17       0.00000000
  18      -0.00000000
  19       0.00000000
  20      -0.00000000
  21       0.00000000
  22      -0.00000000
  23       0.11823627
  24      -0.12059326
  25       0.00235699
  26      -0.15951933
  27      -0.64761325
  28      -0.05477456
  29      -0.21662793
  30       0.22094631
  31      -0.00431838
  32       0.29226516
  33       1.18653197
  34       0.10035583
Ene=     8.82355E-04
Spin= Alpha
Occup=   0.0000000000
   1      -0.00000000
   2       0.00000000
   3      -0.00000000
   4      -0.00000000
   5       0.00000000
   6      -0.00000000
   7       0.00000000
   8      -0.00000000
   9       0.00000000
  10      -0.00000000
  11       0.00000000
  12      -0.00000000
  13       0.00000000
  14      -0.00000000
  15       0.00000000
  16      -0.00000000
  17       0.00000000
  18      -0.00000000
  19       0.00000000
  20      -0.00000000
  21       0.00000000
  22      -0.00000000
  23       0.02603001
  24      -0.02657489
  25       0.00054488
  26      -0.66018260
  27       0.16438959
  28       0.05550322
  29      -0.04769117
  30       0.04868949
  31      -0.00099832
  32       1.20956104
  33      -0.30118825
  34      -0.10169085
Ene=     8.82355E-04
Spin= Alpha
Occup=   0.0000000000
   1      -0.00000000
   2       0.00000000
   3       0.00000000
   4      -0.00000000
   5       0.00000000
   6      -0.00000000
   7       0.00000000
   8      -0.00000000
   9       0.00000000
  10       0.00000000
  11      -0.00000000
  12       0.00000000
  13       0.00000000
  14       0.00000000
  15      -0.00000000
  16      -0.00000000
  17       0.00000000
  18      -0.00000000
  19       0.00000000
  20      -0.00000000
  21       0.00000000
  22      -0.00000000
  23      -0.01450882
  24       0.01266577
  25       0.00184306
  26       0.03881375
  27      -0.07026960
  28       0.67836160
  29       0.02658250
  30      -0.02320573
  31      -0.00337678
  32      -0.07111305
  33       0.12874524
  34      -1.24286790
Ene=     8.82355E-04
Spin= Alpha
Occup=   0.0000000000
   1      -0.00000000
   2       0.00000000
   3       0.00000000
   4      -0.00000000
   5       0.00000000
   6      -0.00000000
   7       0.00000000
   8      -0.00000000
   9      -0.00000000
  10      -0.00000000
  11      -0.00000000
  12       0.00000000
  13       0.00000000
  14       0.00000000
  15       0.00000000
  16       0.00000000
  17       0.00000000
  18      -0.00000000
  19      -0.00000000
  20      -0.00000000
  21      -0.00000000
  22       0.00000000
  23      -0.36142838
  24      -0.32145091
  25       0.68287930
  26      -0.00118894
  27      -0.00192299
  28      -0.00252032
  29       0.66219512
  30       0.58894994
  31      -1.25114506
  32       0.00217833
  33       0.00352323
  34       0.00461763
Ene=     1.49708E-03
Spin= Alpha
Occup=   0.0000000000
   1     -11.37631271
   2       0.76496359
   3       1.74379609
   4      -0.15124391
   5       0.06720953
   6       0.03196174
   7       0.02961166
   8      -0.00467420
   9      -0.00289030
  10      -0.00006153
  11      -0.00000000
  12       0.00000000
  13      -0.00000000
  14       0.00000000
  15      -0.00000000
  16       0.00000000
  17      -0.00000000
  18       0.00000000
  19      -0.00000000
  20       0.00000000
  21      -0.00000000
  22       0.00000000
  23       1.73585248
  24       1.73585248
  25       1.73585248
  26      -0.00000000
  27      -0.00000000
  28      -0.00000000
  29       3.36428282
  30       3.36428282
  31       3.36428282
  32       0.00000000
  33       0.00000000
  34       0.00000000
Ene=     2.25725E-03
Spin= Alpha
Occup=   0.0000000000
   1      -0.00000000
   2       0.00000000
   3       0.00000000
   4      -0.00000000
   5       0.00000000
   6      -0.00000000
   7       0.00000000
   8      -0.00000000
   9       0.00000000
  10      -0.00000000
  11      -0.04726046
  12      -0.22425416
  13       0.56372119
  14       0.12828380
  15       0.60871556
  16      -1.53016499
  17      -0.13601016
  18      -0.64537769
  19       1.62232479
  20       0.01772603
  21       0.08411125
  22      -0.21143551
  23       0.00000000
  24       0.00000000
  25       0.00000000
  26      -0.00000000
  27       0.00000000
  28      -0.00000000
  29       0.00000000
  30       0.00000000
  31       0.00000000
  32      -0.00000000
  33      -0.00000000
  34       0.00000000
Ene=     2.25725E-03
Spin= Alpha
Occup=   0.0000000000
   1      -0.00000000
   2       0.00000000
   3      -0.00000000
   4       0.00000000
   5      -0.00000000
   6       0.00000000
   7      -0.00000000
   8       0.00000000
   9      -0.00000000
  10       0.00000000
  11      -0.10720870
  12       0.55961771
  13       0.21363374
  14       0.29100732
  15      -1.51902650
  16      -0.57988750
  17      -0.30853430
  18       1.61051544
  19       0.61481335
  20       0.04021088
  21      -0.20989642
  22      -0.08012784
  23      -0.00000000
  24       0.00000000
  25       0.00000000
  26      -0.00000000
  27      -0.00000000
  28      -0.00000000
  29       0.00000000
  30      -0.00000000
  31       0.00000000
  32       0.00000000
  33       0.00000000
  34       0.00000000
Ene=     2.25725E-03
Spin= Alpha
Occup=   0.0000000000
   1       0.00000000
   2      -0.00000000
   3      -0.00000000
   4       0.00000000
   5       0.00000000
   6      -0.00000000
   7       0.00000000
   8      -0.00000000
   9       0.00000000
  10      -0.00000000
  11      -0.59714136
  12      -0.08272334
  13      -0.08297050
  14       1.62088071
  15       0.22454427
  16       0.22521514
  17      -1.71850420
  18      -0.23806828
  19      -0.23877955
  20       0.22397045
  21       0.03102713
  22       0.03111983
  23      -0.00000000
  24      -0.00000000
  25      -0.00000000
  26      -0.00000000
  27       0.00000000
  28       0.00000000
  29      -0.00000000
  30      -0.00000000
  31      -0.00000000
  32       0.00000000
  33      -0.00000000
  34       0.00000000
Ene=     3.49811E-03
Spin= Alpha
Occup=   0.0000000000
   1       8.29267689
   2       5.13687823
   3      -6.57902939
   4       1.20174280
   5      -0.17514116
   6       0.16198591
   7       0.03841355
   8      -0.00274424
   9      -0.00821302
  10       0.00021056
  11       0.00000000
  12      -0.00000000
  13      -0.00000000
  14      -0.00000000
  15       0.00000000
  16       0.00000000
  17       0.00000000
  18      -0.00000000
  19      -0.00000000
  20      -0.00000000
  21      -0.00000000
  22       0.00000000
  23      -1.18301895
  24      -1.18301895
  25      -1.18301895
  26       0.00000000
  27      -0.00000000
  28       0.00000000
  29      -3.64946659
  30      -3.64946659
  31      -3.64946659
  32      -0.00000000
  33       0.00000000
  34      -0.00000000
Ene=     7.74974E-03
Spin= Alpha
Occup=   0.0000000000
   1       0.00000000
   2       0.00000000
   3      -0.00000000
   4       0.00000000
   5      -0.00000000
   6       0.00000000
   7      -0.00000000
   8       0.00000000
   9       0.00000000
  10       0.00000000
  11       0.03048583
  12       0.01148966
  13      -0.24082484
  14      -0.09409511
  15      -0.03546307
  16       0.74331062
  17       0.17974258
  18       0.06774235
  19      -1.41988850
  20      -0.19429556
  21      -0.07322715
  22       1.53485075
  23      -0.00000000
  24      -0.00000000
  25      -0.00000000
  26      -0.00000000
  27       0.00000000
  28       0.00000000
  29      -0.00000000
  30      -0.00000000
  31      -0.00000000
  32       0.00000000
  33       0.00000000
  34      -0.00000000
Ene=     7.74974E-03
Spin= Alpha
Occup=   0.0000000000
   1      -0.00000000
   2       0.00000000
   3       0.00000000
   4      -0.00000000
   5       0.00000000
   6      -0.00000000
   7       0.00000000
   8      -0.00000000
   9      -0.00000000
  10      -0.00000000
  11       0.20211094
  12      -0.13356664
  13       0.01921265
  14      -0.62381939
  15       0.41225605
  16      -0.05930023
  17       1.19163369
  18      -0.78750069
  19       0.11327662
  20      -1.28811513
  21       0.85126122
  22      -0.12244814
  23       0.00000000
  24      -0.00000000
  25       0.00000000
  26      -0.00000000
  27       0.00000000
  28      -0.00000000
  29       0.00000000
  30       0.00000000
  31       0.00000000
  32      -0.00000000
  33      -0.00000000
  34       0.00000000
Ene=     7.74974E-03
Spin= Alpha
Occup=   0.0000000000
   1      -0.00000000
   2       0.00000000
   3       0.00000000
   4      -0.00000000
   5       0.00000000
   6      -0.00000000
   7       0.00000000
   8      -0.00000000
   9       0.00000000
  10      -0.00000000
  11      -0.13145260
  12      -0.20269668
  13      -0.02631107
  14       0.40573104
  15       0.62562730
  16       0.08120962
  17      -0.77503647
  18      -1.19508720
  19      -0.15512843
  20       0.83778783
  21       1.29184826
  22       0.16768851
  23       0.00000000
  24       0.00000000
  25       0.00000000
  26      -0.00000000
  27      -0.00000000
  28       0.00000000
  29       0.00000000
  30       0.00000000
  31       0.00000000
  32      -0.00000000
  33       0.00000000
  34      -0.00000000
Ene=     9.79727E-03
Spin= Alpha
Occup=   0.0000000000
   1       4.69765946
   2       4.40585549
   3      -6.65821910
   4       4.18114378
   5      -1.25018791
   6       0.04394913
   7      -0.19295270
   8       0.03683486
   9       0.00914016
  10       0.00102281
  11       0.00000000
  12      -0.00000000
  13       0.00000000
  14      -0.00000000
  15       0.00000000
  16      -0.00000000
  17       0.00000000
  18      -0.00000000
  19       0.00000000
  20       0.00000000
  21       0.00000000
  22      -0.00000000
  23      -0.66824184
  24      -0.66824184
  25      -0.66824184
  26       0.00000000
  27       0.00000000
  28       0.00000000
  29      -2.28625082
  30      -2.28625082
  31      -2.28625082
  32      -0.00000000
  33      -0.00000000
  34      -0.00000000
Ene=     3.58255E-02
Spin= Alpha
Occup=   0.0000000000
   1      -2.42852766
   2      -2.32595240
   3       3.84132371
   4      -3.86366734
   5       3.99521165
   6      -1.91072484
   7       0.07029532
   8      -0.05474640
   9       0.05232097
  10      -0.00372527
  11      -0.00000000
  12       0.00000000
  13      -0.00000000
  14       0.00000000
  15      -0.00000000
  16       0.00000000
  17      -0.00000000
  18       0.00000000
  19      -0.00000000
  20       0.00000000
  21      -0.00000000
  22       0.00000000
  23       0.34803750
  24       0.34803750
  25       0.34803750
  26      -0.00000000
  27      -0.00000000
  28      -0.00000000
  29       1.17863306
  30       1.17863306
  31       1.17863306
  32       0.00000000
  33       0.00000000
  34       0.00000000
Ene=     1.43520E-01
Spin= Alpha
Occup=   0.0000000000
   1      -1.12977598
   2      -1.05183837
   3       1.75563997
   4      -1.89571101
   5       2.87032799
   6      -3.89661796
   7       2.83812373
   8      -0.55337652
   9       0.04276832
  10      -0.02177350
  11      -0.00000000
  12       0.00000000
  13       0.00000000
  14       0.00000000
  15      -0.00000000
  16       0.00000000
  17      -0.00000000
  18       0.00000000
  19       0.00000000
  20      -0.00000000
  21      -0.00000000
  22      -0.00000000
  23       0.16254704
  24       0.16254704
  25       0.16254704
  26      -0.00000000
  27      -0.00000000
  28      -0.00000000
  29       0.54209235
  30       0.54209235
  31       0.54209235
  32       0.00000000
  33       0.00000000
  34       0.00000000
Ene=     6.03981E-01
Spin= Alpha
Occup=   0.0000000000
   1      -0.49612484
   2      -0.45486168
   3       0.75780684
   4      -0.80655000
   5       1.25665183
   6      -2.15711796
   7       3.29752772
   8      -3.13237128
   9       0.85849150
  10      -0.08285319
  11      -0.00000000
  12       0.00000000
  13       0.00000000
  14       0.00000000
  15      -0.00000000
  16      -0.00000000
  17      -0.00000000
  18       0.00000000
  19       0.00000000
  20      -0.00000000
  21      -0.00000000
  22      -0.00000000
  23       0.07148400
  24       0.07148400
  25       0.07148400
  26      -0.00000000
  27      -0.00000000
  28       0.00000000
  29       0.23677227
  30       0.23677227
  31       0.23677227
  32       0.00000000
  33       0.00000000
  34       0.00000000
Ene=     2.13825E+00
Spin= Alpha
Occup=   0.0000000000
   1       0.24065400
   2       0.21960470
   3      -0.36547099
   4       0.38563995
   5      -0.59375395
   6       1.02887454
   7      -1.81943945
   8       2.85983503
   9      -2.84959699
  10       0.63454838
  11       0.00000000
  12      -0.00000000
  13      -0.00000000
  14      -0.00000000
  15       0.00000000
  16       0.00000000
  17       0.00000000
  18      -0.00000000
  19      -0.00000000
  20       0.00000000
  21       0.00000000
  22       0.00000000
  23      -0.03468839
  24      -0.03468839
  25      -0.03468839
  26      -0.00000000
  27       0.00000000
  28      -0.00000000
  29      -0.11466779
  30      -0.11466779
  31      -0.11466779
  32      -0.00000000
  33      -0.00000000
  34      -0.00000000
Ene=     7.68145E+00
Spin= Alpha
Occup=   0.0000000000
   1      -0.12224574
   2      -0.11136938
   3       0.18525802
   4      -0.19476394
   5       0.29759355
   6      -0.50959121
   7       0.90355401
   8      -1.57829400
   9       2.39639156
  10      -2.04416164
  11       0.00000000
  12       0.00000000
  13       0.00000000
  14       0.00000000
  15      -0.00000000
  16      -0.00000000
  17      -0.00000000
  18       0.00000000
  19       0.00000000
  20       0.00000000
  21      -0.00000000
  22      -0.00000000
  23       0.01762310
  24       0.01762310
  25       0.01762310
  26       0.00000000
  27      -0.00000000
  28      -0.00000000
  29       0.05821611
  30       0.05821611
  31       0.05821611
  32      -0.00000000
  33       0.00000000
  34      -0.00000000
