[Molden Format]
[Title]
 Molden2AIM, Version 3.1.0 (02/25/2015)           Time: Tue Oct  1 16:07:50 2024

[Atoms] AU
E+       1       1     0.00000000     0.00000000     0.00000000
[GTO]
    1 0
 S   1 1.0
    0.1000000000D-03      0.1000000000D+01
 S   1 1.0
    0.3000000000D-03      0.1000000000D+01
 S   1 1.0
    0.9000000000D-03      0.1000000000D+01
 S   1 1.0
    0.2700000000D-02      0.1000000000D+01
 S   1 1.0
    0.8100000000D-02      0.1000000000D+01
 S   1 1.0
    0.2430000000D-01      0.1000000000D+01
 S   1 1.0
    0.7290000000D-01      0.1000000000D+01
 S   1 1.0
    0.2187000000D+00      0.1000000000D+01
 S   1 1.0
    0.6561000000D+00      0.1000000000D+01
 S   1 1.0
    0.1968300000D+01      0.1000000000D+01
 P   1 1.0
    0.1000000000D-03      0.1000000000D+01
 P   1 1.0
    0.3000000000D-03      0.1000000000D+01
 P   1 1.0
    0.9000000000D-03      0.1000000000D+01
 P   1 1.0
    0.2700000000D-02      0.1000000000D+01
 D   1 1.0
    0.1000000000D-03      0.1000000000D+01
 D   1 1.0
    0.3000000000D-03      0.1000000000D+01


[MO]
 Ene=         -0.03508690
 Spin= Alpha
 Occup=        1.00000000
    1       -0.0404963400
    2       -0.0345396500
    3        0.0570098100
    4       -0.0504484100
    5        0.2360747000
    6        0.4008343100
    7        0.5737205900
    8       -0.1017456900
    9       -0.0546405600
   10       -0.0012627200
   11        0.0000000000
   12        0.0000000000
   13        0.0000000000
   14        0.0000000000
   15       -0.0000000000
   16       -0.0000000000
   17        0.0000000000
   18        0.0000000000
   19        0.0000000000
   20        0.0000000000
   21       -0.0000000000
   22       -0.0000000000
   23        0.0058755500
   24        0.0058755500
   25        0.0058755500
   26       -0.0000000000
   27        0.0000000000
   28       -0.0000000000
   29        0.0188496700
   30        0.0188496700
   31        0.0188496700
   32        0.0000000000
   33        0.0000000000
   34        0.0000000000
 Ene=         -0.00038155
 Spin= Alpha
 Occup=        0.00000000
    1       -0.8310170100
    2       -1.0506746400
    3        0.2721586500
    4        0.0851250500
    5       -0.0113252100
    6        0.0453092700
    7        0.0191901800
    8       -0.0023295800
    9       -0.0028457900
   10        0.0000242200
   11       -0.0000000000
   12       -0.0000000000
   13       -0.0000000000
   14       -0.0000000000
   15       -0.0000000000
   16        0.0000000000
   17       -0.0000000000
   18       -0.0000000000
   19        0.0000000000
   20        0.0000000000
   21        0.0000000000
   22       -0.0000000000
   23        0.0908721100
   24        0.0908721100
   25        0.0908721100
   26        0.0000000000
   27        0.0000000000
   28       -0.0000000000
   29        0.2396711800
   30        0.2396711800
   31        0.2396711800
   32       -0.0000000000
   33       -0.0000000000
   34        0.0000000000
 Ene=          0.00007406
 Spin= Alpha
 Occup=        0.00000000
    1        0.0000000000
    2       -0.0000000000
    3       -0.0000000000
    4        0.0000000000
    5       -0.0000000000
    6       -0.0000000000
    7       -0.0000000000
    8        0.0000000000
    9        0.0000000000
   10        0.0000000000
   11        0.5697775700
   12        0.1598025200
   13       -0.0121753600
   14        0.3936115900
   15        0.1103941700
   16       -0.0084109300
   17        0.1491687100
   18        0.0418365600
   19       -0.0031875300
   20       -0.0360479800
   21       -0.0101101900
   22        0.0007703000
   23       -0.0000000000
   24       -0.0000000000
   25       -0.0000000000
   26       -0.0000000000
   27        0.0000000000
   28        0.0000000000
   29       -0.0000000000
   30       -0.0000000000
   31       -0.0000000000
   32        0.0000000000
   33        0.0000000000
   34        0.0000000000
 Ene=          0.00007406
 Spin= Alpha
 Occup=        0.00000000
    1        0.0000000000
    2       -0.0000000000
    3       -0.0000000000
    4        0.0000000000
    5       -0.0000000000
    6       -0.0000000000
    7       -0.0000000000
    8        0.0000000000
    9        0.0000000000
   10        0.0000000000
   11       -0.1457711200
   12        0.5354353500
   13        0.2058915700
   14       -0.1007010500
   15        0.3698874200
   16        0.1422332400
   17       -0.0381631200
   18        0.1401778600
   19        0.0539027500
   20        0.0092224700
   21       -0.0338752600
   22       -0.0130260900
   23       -0.0000000000
   24       -0.0000000000
   25       -0.0000000000
   26        0.0000000000
   27       -0.0000000000
   28       -0.0000000000
   29       -0.0000000000
   30       -0.0000000000
   31       -0.0000000000
   32       -0.0000000000
   33        0.0000000000
   34        0.0000000000
 Ene=          0.00007406
 Spin= Alpha
 Occup=        0.00000000
    1       -0.0000000000
    2        0.0000000000
    3        0.0000000000
    4       -0.0000000000
    5        0.0000000000
    6        0.0000000000
    7        0.0000000000
    8       -0.0000000000
    9        0.0000000000
   10       -0.0000000000
   11        0.0666022900
   12       -0.1952017200
   13        0.5547900400
   14        0.0460099500
   15       -0.1348485200
   16        0.3832579600
   17        0.0174365900
   18       -0.0511041300
   19        0.1452449500
   20       -0.0042137100
   21        0.0123497800
   22       -0.0350997700
   23        0.0000000000
   24        0.0000000000
   25        0.0000000000
   26        0.0000000000
   27       -0.0000000000
   28       -0.0000000000
   29       -0.0000000000
   30        0.0000000000
   31        0.0000000000
   32       -0.0000000000
   33       -0.0000000000
   34       -0.0000000000
 Ene=          0.00013706
 Spin= Alpha
 Occup=        0.00000000
    1        3.9541440000
    2       -0.8129739900
    3       -0.3687403100
    4        0.0264211200
    5       -0.0114643400
    6       -0.0096949600
    7       -0.0071864800
    8        0.0010795300
    9        0.0007818600
   10        0.0000096200
   11        0.0000000000
   12       -0.0000000000
   13        0.0000000000
   14       -0.0000000000
   15       -0.0000000000
   16       -0.0000000000
   17        0.0000000000
   18       -0.0000000000
   19        0.0000000000
   20        0.0000000000
   21        0.0000000000
   22       -0.0000000000
   23       -1.2327151700
   24       -1.2327151700
   25       -1.2327151700
   26        0.0000000000
   27        0.0000000000
   28       -0.0000000000
   29       -0.6527105400
   30       -0.6527105400
   31       -0.6527105400
   32        0.0000000000
   33        0.0000000000
   34        0.0000000000
 Ene=          0.00032173
 Spin= Alpha
 Occup=        0.00000000
    1        0.0000000000
    2        0.0000000000
    3       -0.0000000000
    4        0.0000000000
    5       -0.0000000000
    6        0.0000000000
    7       -0.0000000000
    8        0.0000000000
    9       -0.0000000000
   10        0.0000000000
   11        0.0000000000
   12       -0.0000000000
   13        0.0000000000
   14       -0.0000000000
   15        0.0000000000
   16       -0.0000000000
   17       -0.0000000000
   18        0.0000000000
   19       -0.0000000000
   20        0.0000000000
   21        0.0000000000
   22       -0.0000000000
   23        0.8435307300
   24       -0.8980595700
   25        0.0545288400
   26        0.1370187100
   27        0.2610584800
   28        0.0887115800
   29       -0.0738204200
   30        0.0785924400
   31       -0.0047720200
   32       -0.0119910000
   33       -0.0228461700
   34       -0.0077634700
 Ene=          0.00032173
 Spin= Alpha
 Occup=        0.00000000
    1       -0.0000000000
    2       -0.0000000000
    3        0.0000000000
    4       -0.0000000000
    5        0.0000000000
    6       -0.0000000000
    7        0.0000000000
    8       -0.0000000000
    9        0.0000000000
   10       -0.0000000000
   11       -0.0000000000
   12        0.0000000000
   13        0.0000000000
   14        0.0000000000
   15       -0.0000000000
   16       -0.0000000000
   17       -0.0000000000
   18       -0.0000000000
   19        0.0000000000
   20        0.0000000000
   21        0.0000000000
   22       -0.0000000000
   23       -0.2558156700
   24        0.2605351900
   25       -0.0047195200
   26        0.4879032900
   27        0.8838070300
   28        0.0274752700
   29        0.0223873500
   30       -0.0228003800
   31        0.0004130200
   32       -0.0426981800
   33       -0.0773451500
   34       -0.0024044600
 Ene=          0.00032173
 Spin= Alpha
 Occup=        0.00000000
    1       -0.0000000000
    2        0.0000000000
    3        0.0000000000
    4       -0.0000000000
    5        0.0000000000
    6       -0.0000000000
    7       -0.0000000000
    8        0.0000000000
    9        0.0000000000
   10        0.0000000000
   11       -0.0000000000
   12       -0.0000000000
   13        0.0000000000
   14       -0.0000000000
   15        0.0000000000
   16        0.0000000000
   17        0.0000000000
   18        0.0000000000
   19       -0.0000000000
   20        0.0000000000
   21        0.0000000000
   22        0.0000000000
   23       -0.0135820800
   24        0.0079555800
   25        0.0056265000
   26       -0.9217164000
   27        0.5020665000
   28        0.0836433600
   29        0.0011886200
   30       -0.0006962200
   31       -0.0004924000
   32        0.0806627400
   33       -0.0439376500
   34       -0.0073199300
 Ene=          0.00032173
 Spin= Alpha
 Occup=        0.00000000
    1        0.0000000000
    2       -0.0000000000
    3        0.0000000000
    4        0.0000000000
    5        0.0000000000
    6        0.0000000000
    7        0.0000000000
    8       -0.0000000000
    9        0.0000000000
   10       -0.0000000000
   11       -0.0000000000
   12       -0.0000000000
   13       -0.0000000000
   14        0.0000000000
   15        0.0000000000
   16        0.0000000000
   17       -0.0000000000
   18        0.0000000000
   19       -0.0000000000
   20        0.0000000000
   21       -0.0000000000
   22        0.0000000000
   23        0.0843850400
   24       -0.0513668400
   25       -0.0330182000
   26       -0.0492662900
   27        0.0859405200
   28       -1.0448772100
   29       -0.0073848400
   30        0.0044953000
   31        0.0028895400
   32        0.0043114700
   33       -0.0075209700
   34        0.0914409800
 Ene=          0.00032173
 Spin= Alpha
 Occup=        0.00000000
    1       -0.0000000000
    2        0.0000000000
    3       -0.0000000000
    4       -0.0000000000
    5       -0.0000000000
    6       -0.0000000000
    7       -0.0000000000
    8        0.0000000000
    9        0.0000000000
   10        0.0000000000
   11       -0.0000000000
   12        0.0000000000
   13       -0.0000000000
   14       -0.0000000000
   15       -0.0000000000
   16        0.0000000000
   17        0.0000000000
   18       -0.0000000000
   19       -0.0000000000
   20       -0.0000000000
   21       -0.0000000000
   22       -0.0000000000
   23       -0.5696694900
   24       -0.4813761200
   25        1.0510456100
   26       -0.0015312800
   27       -0.0095631900
   28       -0.0377512200
   29        0.0498538400
   30        0.0421269600
   31       -0.0919808000
   32        0.0001340100
   33        0.0008369100
   34        0.0033037500
 Ene=          0.00042451
 Spin= Alpha
 Occup=        0.00000000
    1        0.0000000000
    2       -0.0000000000
    3       -0.0000000000
    4        0.0000000000
    5        0.0000000000
    6        0.0000000000
    7        0.0000000000
    8       -0.0000000000
    9       -0.0000000000
   10       -0.0000000000
   11        0.1344195900
   12        0.0091592100
   13       -1.2862850600
   14       -0.1349499200
   15       -0.0091953400
   16        1.2913598700
   17        0.0013636100
   18        0.0000929200
   19       -0.0130486600
   20        0.0000688300
   21        0.0000046900
   22       -0.0006586600
   23        0.0000000000
   24       -0.0000000000
   25       -0.0000000000
   26        0.0000000000
   27        0.0000000000
   28        0.0000000000
   29       -0.0000000000
   30        0.0000000000
   31       -0.0000000000
   32       -0.0000000000
   33       -0.0000000000
   34       -0.0000000000
 Ene=          0.00042451
 Spin= Alpha
 Occup=        0.00000000
    1       -0.0000000000
    2        0.0000000000
    3       -0.0000000000
    4       -0.0000000000
    5       -0.0000000000
    6       -0.0000000000
    7       -0.0000000000
    8        0.0000000000
    9       -0.0000000000
   10        0.0000000000
   11       -0.3805669900
   12        1.2356744400
   13       -0.0309712500
   14        0.3820684500
   15       -1.2405495800
   16        0.0310934400
   17       -0.0038606500
   18        0.0125352500
   19       -0.0003141900
   20       -0.0001948800
   21        0.0006327500
   22       -0.0000158600
   23        0.0000000000
   24       -0.0000000000
   25       -0.0000000000
   26       -0.0000000000
   27       -0.0000000000
   28       -0.0000000000
   29       -0.0000000000
   30        0.0000000000
   31        0.0000000000
   32        0.0000000000
   33        0.0000000000
   34        0.0000000000
 Ene=          0.00042451
 Spin= Alpha
 Occup=        0.00000000
    1        0.0000000000
    2       -0.0000000000
    3       -0.0000000000
    4        0.0000000000
    5       -0.0000000000
    6        0.0000000000
    7       -0.0000000000
    8        0.0000000000
    9       -0.0000000000
   10        0.0000000000
   11       -1.2287318300
   12       -0.3817152900
   13       -0.1311232200
   14        1.2335795800
   15        0.3832212800
   16        0.1316405400
   17       -0.0124648200
   18       -0.0038722900
   19       -0.0013301700
   20       -0.0006291900
   21       -0.0001954600
   22       -0.0000671400
   23        0.0000000000
   24       -0.0000000000
   25        0.0000000000
   26       -0.0000000000
   27       -0.0000000000
   28        0.0000000000
   29       -0.0000000000
   30        0.0000000000
   31       -0.0000000000
   32        0.0000000000
   33       -0.0000000000
   34        0.0000000000
 Ene=          0.00059367
 Spin= Alpha
 Occup=        0.00000000
    1       -9.7180200600
    2        3.6382410200
    3        0.7640775800
    4       -0.2192773400
    5        0.0438413900
    6       -0.0405401500
    7       -0.0096633500
    8        0.0006770200
    9        0.0021021800
   10       -0.0000559600
   11       -0.0000000000
   12       -0.0000000000
   13       -0.0000000000
   14        0.0000000000
   15        0.0000000000
   16        0.0000000000
   17       -0.0000000000
   18        0.0000000000
   19       -0.0000000000
   20        0.0000000000
   21       -0.0000000000
   22        0.0000000000
   23        1.8405873000
   24        1.8405873000
   25        1.8405873000
   26        0.0000000000
   27       -0.0000000000
   28       -0.0000000000
   29        1.4265876400
   30        1.4265876400
   31        1.4265876400
   32       -0.0000000000
   33        0.0000000000
   34        0.0000000000
 Ene=          0.00088236
 Spin= Alpha
 Occup=        0.00000000
    1        0.0000000000
    2       -0.0000000000
    3       -0.0000000000
    4        0.0000000000
    5       -0.0000000000
    6        0.0000000000
    7       -0.0000000000
    8        0.0000000000
    9       -0.0000000000
   10        0.0000000000
   11       -0.0000000000
   12        0.0000000000
   13       -0.0000000000
   14        0.0000000000
   15       -0.0000000000
   16        0.0000000000
   17        0.0000000000
   18       -0.0000000000
   19       -0.0000000000
   20       -0.0000000000
   21        0.0000000000
   22        0.0000000000
   23       -0.5668950200
   24        0.5900239500
   25       -0.0231289200
   26       -0.0638194900
   27       -0.1244988200
   28       -0.0246304900
   29        1.0386431600
   30       -1.0810190800
   31        0.0423759200
   32        0.1169276100
   33        0.2281019300
   34        0.0451270300
 Ene=          0.00088236
 Spin= Alpha
 Occup=        0.00000000
    1       -0.0000000000
    2       -0.0000000000
    3        0.0000000000
    4        0.0000000000
    5        0.0000000000
    6        0.0000000000
    7       -0.0000000000
    8       -0.0000000000
    9        0.0000000000
   10       -0.0000000000
   11       -0.0000000000
   12       -0.0000000000
   13       -0.0000000000
   14       -0.0000000000
   15        0.0000000000
   16       -0.0000000000
   17        0.0000000000
   18       -0.0000000000
   19        0.0000000000
   20       -0.0000000000
   21        0.0000000000
   22       -0.0000000000
   23        0.1182362700
   24       -0.1205932600
   25        0.0023569900
   26       -0.1595193300
   27       -0.6476132500
   28       -0.0547745600
   29       -0.2166279300
   30        0.2209463100
   31       -0.0043183800
   32        0.2922651600
   33        1.1865319700
   34        0.1003558300
 Ene=          0.00088236
 Spin= Alpha
 Occup=        0.00000000
    1       -0.0000000000
    2        0.0000000000
    3       -0.0000000000
    4       -0.0000000000
    5        0.0000000000
    6       -0.0000000000
    7        0.0000000000
    8       -0.0000000000
    9        0.0000000000
   10       -0.0000000000
   11        0.0000000000
   12       -0.0000000000
   13        0.0000000000
   14       -0.0000000000
   15        0.0000000000
   16       -0.0000000000
   17        0.0000000000
   18       -0.0000000000
   19        0.0000000000
   20       -0.0000000000
   21        0.0000000000
   22       -0.0000000000
   23        0.0260300100
   24       -0.0265748900
   25        0.0005448800
   26       -0.6601826000
   27        0.1643895900
   28        0.0555032200
   29       -0.0476911700
   30        0.0486894900
   31       -0.0009983200
   32        1.2095610400
   33       -0.3011882500
   34       -0.1016908500
 Ene=          0.00088236
 Spin= Alpha
 Occup=        0.00000000
    1       -0.0000000000
    2        0.0000000000
    3        0.0000000000
    4       -0.0000000000
    5        0.0000000000
    6       -0.0000000000
    7        0.0000000000
    8       -0.0000000000
    9        0.0000000000
   10        0.0000000000
   11       -0.0000000000
   12        0.0000000000
   13        0.0000000000
   14        0.0000000000
   15       -0.0000000000
   16       -0.0000000000
   17        0.0000000000
   18       -0.0000000000
   19        0.0000000000
   20       -0.0000000000
   21        0.0000000000
   22       -0.0000000000
   23       -0.0145088200
   24        0.0126657700
   25        0.0018430600
   26        0.0388137500
   27       -0.0702696000
   28        0.6783616000
   29        0.0265825000
   30       -0.0232057300
   31       -0.0033767800
   32       -0.0711130500
   33        0.1287452400
   34       -1.2428679000
 Ene=          0.00088236
 Spin= Alpha
 Occup=        0.00000000
    1       -0.0000000000
    2        0.0000000000
    3        0.0000000000
    4       -0.0000000000
    5        0.0000000000
    6       -0.0000000000
    7        0.0000000000
    8       -0.0000000000
    9       -0.0000000000
   10       -0.0000000000
   11       -0.0000000000
   12        0.0000000000
   13        0.0000000000
   14        0.0000000000
   15        0.0000000000
   16        0.0000000000
   17        0.0000000000
   18       -0.0000000000
   19       -0.0000000000
   20       -0.0000000000
   21       -0.0000000000
   22        0.0000000000
   23       -0.3614283800
   24       -0.3214509100
   25        0.6828793000
   26       -0.0011889400
   27       -0.0019229900
   28       -0.0025203200
   29        0.6621951200
   30        0.5889499400
   31       -1.2511450600
   32        0.0021783300
   33        0.0035232300
   34        0.0046176300
 Ene=          0.00149708
 Spin= Alpha
 Occup=        0.00000000
    1      -11.3763127100
    2        0.7649635900
    3        1.7437960900
    4       -0.1512439100
    5        0.0672095300
    6        0.0319617400
    7        0.0296116600
    8       -0.0046742000
    9       -0.0028903000
   10       -0.0000615300
   11       -0.0000000000
   12        0.0000000000
   13       -0.0000000000
   14        0.0000000000
   15       -0.0000000000
   16        0.0000000000
   17       -0.0000000000
   18        0.0000000000
   19       -0.0000000000
   20        0.0000000000
   21       -0.0000000000
   22        0.0000000000
   23        1.7358524800
   24        1.7358524800
   25        1.7358524800
   26       -0.0000000000
   27       -0.0000000000
   28       -0.0000000000
   29        3.3642828200
   30        3.3642828200
   31        3.3642828200
   32        0.0000000000
   33        0.0000000000
   34        0.0000000000
 Ene=          0.00225725
 Spin= Alpha
 Occup=        0.00000000
    1       -0.0000000000
    2        0.0000000000
    3        0.0000000000
    4       -0.0000000000
    5        0.0000000000
    6       -0.0000000000
    7        0.0000000000
    8       -0.0000000000
    9        0.0000000000
   10       -0.0000000000
   11       -0.0472604600
   12       -0.2242541600
   13        0.5637211900
   14        0.1282838000
   15        0.6087155600
   16       -1.5301649900
   17       -0.1360101600
   18       -0.6453776900
   19        1.6223247900
   20        0.0177260300
   21        0.0841112500
   22       -0.2114355100
   23        0.0000000000
   24        0.0000000000
   25        0.0000000000
   26       -0.0000000000
   27        0.0000000000
   28       -0.0000000000
   29        0.0000000000
   30        0.0000000000
   31        0.0000000000
   32       -0.0000000000
   33       -0.0000000000
   34        0.0000000000
 Ene=          0.00225725
 Spin= Alpha
 Occup=        0.00000000
    1       -0.0000000000
    2        0.0000000000
    3       -0.0000000000
    4        0.0000000000
    5       -0.0000000000
    6        0.0000000000
    7       -0.0000000000
    8        0.0000000000
    9       -0.0000000000
   10        0.0000000000
   11       -0.1072087000
   12        0.5596177100
   13        0.2136337400
   14        0.2910073200
   15       -1.5190265000
   16       -0.5798875000
   17       -0.3085343000
   18        1.6105154400
   19        0.6148133500
   20        0.0402108800
   21       -0.2098964200
   22       -0.0801278400
   23       -0.0000000000
   24        0.0000000000
   25        0.0000000000
   26       -0.0000000000
   27       -0.0000000000
   28       -0.0000000000
   29        0.0000000000
   30       -0.0000000000
   31        0.0000000000
   32        0.0000000000
   33        0.0000000000
   34        0.0000000000
 Ene=          0.00225725
 Spin= Alpha
 Occup=        0.00000000
    1        0.0000000000
    2       -0.0000000000
    3       -0.0000000000
    4        0.0000000000
    5        0.0000000000
    6       -0.0000000000
    7        0.0000000000
    8       -0.0000000000
    9        0.0000000000
   10       -0.0000000000
   11       -0.5971413600
   12       -0.0827233400
   13       -0.0829705000
   14        1.6208807100
   15        0.2245442700
   16        0.2252151400
   17       -1.7185042000
   18       -0.2380682800
   19       -0.2387795500
   20        0.2239704500
   21        0.0310271300
   22        0.0311198300
   23       -0.0000000000
   24       -0.0000000000
   25       -0.0000000000
   26       -0.0000000000
   27        0.0000000000
   28        0.0000000000
   29       -0.0000000000
   30       -0.0000000000
   31       -0.0000000000
   32        0.0000000000
   33       -0.0000000000
   34        0.0000000000
 Ene=          0.00349811
 Spin= Alpha
 Occup=        0.00000000
    1        8.2926768900
    2        5.1368782300
    3       -6.5790293900
    4        1.2017428000
    5       -0.1751411600
    6        0.1619859100
    7        0.0384135500
    8       -0.0027442400
    9       -0.0082130200
   10        0.0002105600
   11        0.0000000000
   12       -0.0000000000
   13       -0.0000000000
   14       -0.0000000000
   15        0.0000000000
   16        0.0000000000
   17        0.0000000000
   18       -0.0000000000
   19       -0.0000000000
   20       -0.0000000000
   21       -0.0000000000
   22        0.0000000000
   23       -1.1830189500
   24       -1.1830189500
   25       -1.1830189500
   26        0.0000000000
   27       -0.0000000000
   28        0.0000000000
   29       -3.6494665900
   30       -3.6494665900
   31       -3.6494665900
   32       -0.0000000000
   33        0.0000000000
   34       -0.0000000000
 Ene=          0.00774974
 Spin= Alpha
 Occup=        0.00000000
    1        0.0000000000
    2        0.0000000000
    3       -0.0000000000
    4        0.0000000000
    5       -0.0000000000
    6        0.0000000000
    7       -0.0000000000
    8        0.0000000000
    9        0.0000000000
   10        0.0000000000
   11        0.0304858300
   12        0.0114896600
   13       -0.2408248400
   14       -0.0940951100
   15       -0.0354630700
   16        0.7433106200
   17        0.1797425800
   18        0.0677423500
   19       -1.4198885000
   20       -0.1942955600
   21       -0.0732271500
   22        1.5348507500
   23       -0.0000000000
   24       -0.0000000000
   25       -0.0000000000
   26       -0.0000000000
   27        0.0000000000
   28        0.0000000000
   29       -0.0000000000
   30       -0.0000000000
   31       -0.0000000000
   32        0.0000000000
   33        0.0000000000
   34       -0.0000000000
 Ene=          0.00774974
 Spin= Alpha
 Occup=        0.00000000
    1       -0.0000000000
    2        0.0000000000
    3        0.0000000000
    4       -0.0000000000
    5        0.0000000000
    6       -0.0000000000
    7        0.0000000000
    8       -0.0000000000
    9       -0.0000000000
   10       -0.0000000000
   11        0.2021109400
   12       -0.1335666400
   13        0.0192126500
   14       -0.6238193900
   15        0.4122560500
   16       -0.0593002300
   17        1.1916336900
   18       -0.7875006900
   19        0.1132766200
   20       -1.2881151300
   21        0.8512612200
   22       -0.1224481400
   23        0.0000000000
   24       -0.0000000000
   25        0.0000000000
   26       -0.0000000000
   27        0.0000000000
   28       -0.0000000000
   29        0.0000000000
   30        0.0000000000
   31        0.0000000000
   32       -0.0000000000
   33       -0.0000000000
   34        0.0000000000
 Ene=          0.00774974
 Spin= Alpha
 Occup=        0.00000000
    1       -0.0000000000
    2        0.0000000000
    3        0.0000000000
    4       -0.0000000000
    5        0.0000000000
    6       -0.0000000000
    7        0.0000000000
    8       -0.0000000000
    9        0.0000000000
   10       -0.0000000000
   11       -0.1314526000
   12       -0.2026966800
   13       -0.0263110700
   14        0.4057310400
   15        0.6256273000
   16        0.0812096200
   17       -0.7750364700
   18       -1.1950872000
   19       -0.1551284300
   20        0.8377878300
   21        1.2918482600
   22        0.1676885100
   23        0.0000000000
   24        0.0000000000
   25        0.0000000000
   26       -0.0000000000
   27       -0.0000000000
   28        0.0000000000
   29        0.0000000000
   30        0.0000000000
   31        0.0000000000
   32       -0.0000000000
   33        0.0000000000
   34       -0.0000000000
 Ene=          0.00979727
 Spin= Alpha
 Occup=        0.00000000
    1        4.6976594600
    2        4.4058554900
    3       -6.6582191000
    4        4.1811437800
    5       -1.2501879100
    6        0.0439491300
    7       -0.1929527000
    8        0.0368348600
    9        0.0091401600
   10        0.0010228100
   11        0.0000000000
   12       -0.0000000000
   13        0.0000000000
   14       -0.0000000000
   15        0.0000000000
   16       -0.0000000000
   17        0.0000000000
   18       -0.0000000000
   19        0.0000000000
   20        0.0000000000
   21        0.0000000000
   22       -0.0000000000
   23       -0.6682418400
   24       -0.6682418400
   25       -0.6682418400
   26        0.0000000000
   27        0.0000000000
   28        0.0000000000
   29       -2.2862508200
   30       -2.2862508200
   31       -2.2862508200
   32       -0.0000000000
   33       -0.0000000000
   34       -0.0000000000
 Ene=          0.03582550
 Spin= Alpha
 Occup=        0.00000000
    1       -2.4285276600
    2       -2.3259524000
    3        3.8413237100
    4       -3.8636673400
    5        3.9952116500
    6       -1.9107248400
    7        0.0702953200
    8       -0.0547464000
    9        0.0523209700
   10       -0.0037252700
   11       -0.0000000000
   12        0.0000000000
   13       -0.0000000000
   14        0.0000000000
   15       -0.0000000000
   16        0.0000000000
   17       -0.0000000000
   18        0.0000000000
   19       -0.0000000000
   20        0.0000000000
   21       -0.0000000000
   22        0.0000000000
   23        0.3480375000
   24        0.3480375000
   25        0.3480375000
   26       -0.0000000000
   27       -0.0000000000
   28       -0.0000000000
   29        1.1786330600
   30        1.1786330600
   31        1.1786330600
   32        0.0000000000
   33        0.0000000000
   34        0.0000000000
 Ene=          0.14352000
 Spin= Alpha
 Occup=        0.00000000
    1       -1.1297759800
    2       -1.0518383700
    3        1.7556399700
    4       -1.8957110100
    5        2.8703279900
    6       -3.8966179600
    7        2.8381237300
    8       -0.5533765200
    9        0.0427683200
   10       -0.0217735000
   11       -0.0000000000
   12        0.0000000000
   13        0.0000000000
   14        0.0000000000
   15       -0.0000000000