 Molden2AIM, Version 3.1.0 (02/25/2015)           Time: Tue Oct  1 16:07:50 2024
GAUSSIAN             34 MOL ORBITALS     34 PRIMITIVES        1 NUCLEI
  H    1    (CENTRE  1)   0.00000000  0.00000000  0.00000000  CHARGE =  1.0
CENTRE ASSIGNMENTS    1  1  1  1  1  1  1  1  1  1  1  1  1  1  1  1  1  1  1  1
CENTRE ASSIGNMENTS    1  1  1  1  1  1  1  1  1  1  1  1  1  1
TYPE ASSIGNMENTS      1  1  1  1  1  1  1  1  1  1  2  3  4  2  3  4  2  3  4  2
TYPE ASSIGNMENTS      3  4  5  6  7  8  9 10  5  6  7  8  9 10
EXPONENTS  0.1000000D-03 0.3000000D-03 0.9000000D-03 0.2700000D-02 0.8100000D-02
EXPONENTS  0.2430000D-01 0.7290000D-01 0.2187000D+00 0.6561000D+00 0.1968300D+01
EXPONENTS  0.1000000D-03 0.1000000D-03 0.1000000D-03 0.3000000D-03 0.3000000D-03
EXPONENTS  0.3000000D-03 0.9000000D-03 0.9000000D-03 0.9000000D-03 0.2700000D-02
EXPONENTS  0.2700000D-02 0.2700000D-02 0.1000000D-03 0.1000000D-03 0.1000000D-03
EXPONENTS  0.1000000D-03 0.1000000D-03 0.1000000D-03 0.3000000D-03 0.3000000D-03
EXPONENTS  0.3000000D-03 0.3000000D-03 0.3000000D-03 0.3000000D-03
MO    1     MO 0.0        OCC NO =    1.0000000  ORB. ENERGY =   -0.035087
 -0.28861963D-04 -0.56113708D-04  0.21112593D-03 -0.42587329D-03  0.45427967D-02
  0.17582462D-01  0.57366212D-01 -0.23190638D-01 -0.28389174D-01 -0.14954973D-02
  0.00000000D+00  0.00000000D+00  0.00000000D+00  0.00000000D+00 -0.00000000D+00
 -0.00000000D+00  0.00000000D+00  0.00000000D+00  0.00000000D+00  0.00000000D+00
 -0.00000000D+00 -0.00000000D+00  0.96707016D-09  0.96707016D-09  0.96707016D-09
 -0.00000000D+00  0.00000000D+00 -0.00000000D+00  0.21216581D-07  0.21216581D-07
  0.21216581D-07  0.00000000D+00  0.00000000D+00  0.00000000D+00
MO    2     MO 0.0        OCC NO =    0.0000000  ORB. ENERGY =   -0.000382
 -0.59227037D-03 -0.17069440D-02  0.10078923D-02  0.71860510D-03 -0.21793156D-03
  0.19874759D-02  0.19188224D-02 -0.53097529D-03 -0.14785652D-02  0.28684858D-04
 -0.00000000D+00 -0.00000000D+00 -0.00000000D+00 -0.00000000D+00 -0.00000000D+00
  0.00000000D+00 -0.00000000D+00 -0.00000000D+00  0.00000000D+00  0.00000000D+00
  0.00000000D+00 -0.00000000D+00  0.14956848D-07  0.14956848D-07  0.14956848D-07
  0.00000000D+00  0.00000000D+00 -0.00000000D+00  0.26976616D-06  0.26976616D-06
  0.26976616D-06 -0.00000000D+00 -0.00000000D+00  0.00000000D+00
MO    3     MO 0.0        OCC NO =    0.0000000  ORB. ENERGY =    0.000074
  0.00000000D+00 -0.00000000D+00 -0.00000000D+00  0.00000000D+00 -0.00000000D+00
 -0.00000000D+00 -0.00000000D+00  0.00000000D+00  0.00000000D+00  0.00000000D+00
  0.81216718D-05  0.22778426D-05 -0.17354891D-06  0.22151826D-04  0.62128060D-05
 -0.47335359D-06  0.33145224D-04  0.92960659D-05 -0.70826781D-06 -0.31624650D-04
 -0.88696016D-05  0.67577900D-06 -0.00000000D+00 -0.00000000D+00 -0.00000000D+00
 -0.00000000D+00  0.00000000D+00  0.00000000D+00 -0.00000000D+00 -0.00000000D+00
 -0.00000000D+00  0.00000000D+00  0.00000000D+00  0.00000000D+00
MO    4     MO 0.0        OCC NO =    0.0000000  ORB. ENERGY =    0.000074
  0.00000000D+00 -0.00000000D+00 -0.00000000D+00  0.00000000D+00 -0.00000000D+00
 -0.00000000D+00 -0.00000000D+00  0.00000000D+00  0.00000000D+00  0.00000000D+00
 -0.20778375D-05  0.76321541D-05  0.29348010D-05 -0.56672929D-05  0.20816668D-04
  0.80046576D-05 -0.84798291D-05  0.31147461D-04  0.11977168D-04  0.80908108D-05
 -0.29718537D-04 -0.11427701D-04 -0.00000000D+00 -0.00000000D+00 -0.00000000D+00
  0.00000000D+00 -0.00000000D+00 -0.00000000D+00 -0.00000000D+00 -0.00000000D+00
 -0.00000000D+00 -0.00000000D+00  0.00000000D+00  0.00000000D+00
MO    5     MO 0.0        OCC NO =    0.0000000  ORB. ENERGY =    0.000074
 -0.00000000D+00  0.00000000D+00  0.00000000D+00 -0.00000000D+00  0.00000000D+00
  0.00000000D+00  0.00000000D+00 -0.00000000D+00  0.00000000D+00 -0.00000000D+00
  0.94935633D-06 -0.27824267D-05  0.79080379D-05  0.25893659D-05 -0.75890575D-05
  0.21569141D-04  0.38744029D-05 -0.11355316D-04  0.32273366D-04 -0.36966594D-05
  0.10834379D-04 -0.30792792D-04  0.00000000D+00  0.00000000D+00  0.00000000D+00
  0.00000000D+00 -0.00000000D+00 -0.00000000D+00 -0.00000000D+00  0.00000000D+00
  0.00000000D+00 -0.00000000D+00 -0.00000000D+00 -0.00000000D+00
MO    6     MO 0.0        OCC NO =    0.0000000  ORB. ENERGY =    0.000137
  0.28181401D-02 -0.13207715D-02 -0.13655657D-02  0.22304071D-03 -0.22060884D-03
 -0.42526615D-03 -0.71857476D-03  0.24605455D-03  0.40622497D-03  0.11393408D-04
  0.00000000D+00 -0.00000000D+00  0.00000000D+00 -0.00000000D+00 -0.00000000D+00
 -0.00000000D+00  0.00000000D+00 -0.00000000D+00  0.00000000D+00  0.00000000D+00
  0.00000000D+00 -0.00000000D+00 -0.20289540D-06 -0.20289540D-06 -0.20289540D-06
  0.00000000D+00  0.00000000D+00 -0.00000000D+00 -0.73466995D-06 -0.73466995D-06
 -0.73466995D-06  0.00000000D+00  0.00000000D+00  0.00000000D+00
MO    7     MO 0.0        OCC NO =    0.0000000  ORB. ENERGY =    0.000322
  0.00000000D+00  0.00000000D+00 -0.00000000D+00  0.00000000D+00 -0.00000000D+00
  0.00000000D+00 -0.00000000D+00  0.00000000D+00 -0.00000000D+00  0.00000000D+00
  0.00000000D+00 -0.00000000D+00  0.00000000D+00 -0.00000000D+00  0.00000000D+00
 -0.00000000D+00 -0.00000000D+00  0.00000000D+00 -0.00000000D+00  0.00000000D+00
  0.00000000D+00 -0.00000000D+00  0.13883864D-06 -0.14781367D-06  0.89750260D-08
  0.39061594D-07  0.74423123D-07  0.25290091D-07 -0.83089886D-07  0.88461118D-07
 -0.53712319D-08 -0.23376941D-07 -0.44539535D-07 -0.15135200D-07
MO    8     MO 0.0        OCC NO =    0.0000000  ORB. ENERGY =    0.000322
 -0.00000000D+00 -0.00000000D+00  0.00000000D+00 -0.00000000D+00  0.00000000D+00
 -0.00000000D+00  0.00000000D+00 -0.00000000D+00  0.00000000D+00 -0.00000000D+00
 -0.00000000D+00  0.00000000D+00  0.00000000D+00  0.00000000D+00 -0.00000000D+00
 -0.00000000D+00 -0.00000000D+00 -0.00000000D+00  0.00000000D+00  0.00000000D+00
  0.00000000D+00 -0.00000000D+00 -0.42105284D-07  0.42882080D-07 -0.77679655D-09
  0.13909254D-06  0.25195764D-06  0.78327101D-08  0.25198480D-07 -0.25663373D-07
  0.46488200D-09 -0.83241835D-07 -0.15078751D-06 -0.46875923D-08
MO    9     MO 0.0        OCC NO =    0.0000000  ORB. ENERGY =    0.000322
 -0.00000000D+00  0.00000000D+00  0.00000000D+00 -0.00000000D+00  0.00000000D+00
 -0.00000000D+00 -0.00000000D+00  0.00000000D+00  0.00000000D+00  0.00000000D+00
 -0.00000000D+00 -0.00000000D+00  0.00000000D+00 -0.00000000D+00  0.00000000D+00
  0.00000000D+00  0.00000000D+00  0.00000000D+00 -0.00000000D+00  0.00000000D+00
  0.00000000D+00  0.00000000D+00 -0.22355055D-08  0.13094270D-08  0.92607845D-09
 -0.26276493D-06  0.14313022D-06  0.23845232D-07  0.13378724D-08 -0.78364280D-09
 -0.55422957D-09  0.15725528D-06 -0.85658232D-07 -0.14270501D-07
MO   10     MO 0.0        OCC NO =    0.0000000  ORB. ENERGY =    0.000322
  0.00000000D+00 -0.00000000D+00  0.00000000D+00  0.00000000D+00  0.00000000D+00
  0.00000000D+00  0.00000000D+00 -0.00000000D+00  0.00000000D+00 -0.00000000D+00
 -0.00000000D+00 -0.00000000D+00 -0.00000000D+00  0.00000000D+00  0.00000000D+00
  0.00000000D+00 -0.00000000D+00  0.00000000D+00 -0.00000000D+00  0.00000000D+00
 -0.00000000D+00  0.00000000D+00  0.13889126D-07 -0.84545852D-08 -0.54345408D-08
 -0.14044942D-07  0.24500111D-07 -0.29787588D-06 -0.83121380D-08  0.50597648D-08
  0.32523731D-08  0.84053857D-08 -0.14662436D-07  0.17826790D-06
MO   11     MO 0.0        OCC NO =    0.0000000  ORB. ENERGY =    0.000322
 -0.00000000D+00  0.00000000D+00 -0.00000000D+00 -0.00000000D+00 -0.00000000D+00
 -0.00000000D+00 -0.00000000D+00  0.00000000D+00  0.00000000D+00  0.00000000D+00
 -0.00000000D+00  0.00000000D+00 -0.00000000D+00 -0.00000000D+00 -0.00000000D+00
  0.00000000D+00  0.00000000D+00 -0.00000000D+00 -0.00000000D+00 -0.00000000D+00
 -0.00000000D+00 -0.00000000D+00 -0.93763199D-07 -0.79230792D-07  0.17299399D-06
 -0.43654065D-09 -0.27262951D-08 -0.10762200D-07  0.56113876D-07  0.47416749D-07
 -0.10353062D-06  0.26125793D-09  0.16315900D-08  0.64407947D-08
MO   12     MO 0.0        OCC NO =    0.0000000  ORB. ENERGY =    0.000425
  0.00000000D+00 -0.00000000D+00 -0.00000000D+00  0.00000000D+00  0.00000000D+00
  0.00000000D+00  0.00000000D+00 -0.00000000D+00 -0.00000000D+00 -0.00000000D+00
  0.19160315D-05  0.13055638D-06 -0.18334848D-04 -0.75947641D-05 -0.51749892D-06
  0.72675653D-04  0.30299356D-06  0.20646785D-07 -0.28994067D-05  0.60384095D-07
  0.41145054D-08 -0.57783798D-06  0.00000000D+00 -0.00000000D+00 -0.00000000D+00
  0.00000000D+00  0.00000000D+00  0.00000000D+00 -0.00000000D+00  0.00000000D+00
 -0.00000000D+00 -0.00000000D+00 -0.00000000D+00 -0.00000000D+00
MO   13     MO 0.0        OCC NO =    0.0000000  ORB. ENERGY =    0.000425
 -0.00000000D+00  0.00000000D+00 -0.00000000D+00 -0.00000000D+00 -0.00000000D+00
 -0.00000000D+00 -0.00000000D+00  0.00000000D+00 -0.00000000D+00  0.00000000D+00
 -0.54246435D-05  0.17613439D-04 -0.44146759D-06  0.21502197D-04 -0.69816132D-04
  0.17498887D-05 -0.85783479D-06  0.27853272D-05 -0.69812885D-07 -0.17096691D-06
  0.55510731D-06 -0.13913871D-07  0.00000000D+00 -0.00000000D+00 -0.00000000D+00
 -0.00000000D+00 -0.00000000D+00 -0.00000000D+00 -0.00000000D+00  0.00000000D+00
  0.00000000D+00  0.00000000D+00  0.00000000D+00  0.00000000D+00
MO   14     MO 0.0        OCC NO =    0.0000000  ORB. ENERGY =    0.000425
  0.00000000D+00 -0.00000000D+00 -0.00000000D+00  0.00000000D+00 -0.00000000D+00
  0.00000000D+00 -0.00000000D+00  0.00000000D+00 -0.00000000D+00  0.00000000D+00
 -0.17514478D-04 -0.54410115D-05 -0.18690447D-05  0.69423871D-04  0.21567076D-04
  0.74085175D-05 -0.27696777D-05 -0.86042119D-06 -0.29556321D-06 -0.55198415D-06
 -0.17147574D-06 -0.58901470D-07  0.00000000D+00 -0.00000000D+00  0.00000000D+00
 -0.00000000D+00 -0.00000000D+00  0.00000000D+00 -0.00000000D+00  0.00000000D+00
 -0.00000000D+00  0.00000000D+00 -0.00000000D+00  0.00000000D+00
MO   15     MO 0.0        OCC NO =    0.0000000  ORB. ENERGY =    0.000594
 -0.69260861D-02  0.59107488D-02  0.28296286D-02 -0.18510863D-02  0.84364196D-03
 -0.17782800D-02 -0.96623652D-03  0.15431146D-03  0.10922135D-02 -0.66275997D-04
 -0.00000000D+00 -0.00000000D+00 -0.00000000D+00  0.00000000D+00  0.00000000D+00
  0.00000000D+00 -0.00000000D+00  0.00000000D+00 -0.00000000D+00  0.00000000D+00
 -0.00000000D+00  0.00000000D+00  0.30294646D-06  0.30294646D-06  0.30294646D-06
  0.00000000D+00 -0.00000000D+00 -0.00000000D+00  0.16057211D-05  0.16057211D-05
  0.16057211D-05 -0.00000000D+00  0.00000000D+00  0.00000000D+00
MO   16     MO 0.0        OCC NO =    0.0000000  ORB. ENERGY =    0.000882
  0.00000000D+00 -0.00000000D+00 -0.00000000D+00  0.00000000D+00 -0.00000000D+00
  0.00000000D+00 -0.00000000D+00  0.00000000D+00 -0.00000000D+00  0.00000000D+00
 -0.00000000D+00  0.00000000D+00 -0.00000000D+00  0.00000000D+00 -0.00000000D+00
  0.00000000D+00  0.00000000D+00 -0.00000000D+00 -0.00000000D+00 -0.00000000D+00
  0.00000000D+00  0.00000000D+00 -0.93306543D-07  0.97113386D-07 -0.38068416D-08
 -0.18193800D-07 -0.35492396D-07 -0.70217140D-08  0.11690633D-05 -0.12167602D-05
  0.47696970D-07  0.22795512D-06  0.44469397D-06  0.87976976D-07
MO   17     MO 0.0        OCC NO =    0.0000000  ORB. ENERGY =    0.000882
 -0.00000000D+00 -0.00000000D+00  0.00000000D+00  0.00000000D+00  0.00000000D+00
  0.00000000D+00 -0.00000000D+00 -0.00000000D+00  0.00000000D+00 -0.00000000D+00
 -0.00000000D+00 -0.00000000D+00 -0.00000000D+00 -0.00000000D+00  0.00000000D+00
 -0.00000000D+00  0.00000000D+00 -0.00000000D+00  0.00000000D+00 -0.00000000D+00
  0.00000000D+00 -0.00000000D+00  0.19460777D-07 -0.19848719D-07  0.38794235D-09
 -0.45476120D-07 -0.18462300D-06 -0.15615251D-07 -0.24382942D-06  0.24869005D-06
 -0.48606294D-08  0.56978279D-06  0.23131922D-05  0.19564776D-06
MO   18     MO 0.0        OCC NO =    0.0000000  ORB. ENERGY =    0.000882
 -0.00000000D+00  0.00000000D+00 -0.00000000D+00 -0.00000000D+00  0.00000000D+00
 -0.00000000D+00  0.00000000D+00 -0.00000000D+00  0.00000000D+00 -0.00000000D+00
  0.00000000D+00 -0.00000000D+00  0.00000000D+00 -0.00000000D+00  0.00000000D+00
 -0.00000000D+00  0.00000000D+00 -0.00000000D+00  0.00000000D+00 -0.00000000D+00
  0.00000000D+00 -0.00000000D+00  0.42843386D-08 -0.43740217D-08  0.89683040D-10
 -0.18820630D-06  0.46864544D-07  0.15822979D-07 -0.53679644D-07  0.54803321D-07
 -0.11236768D-08  0.23580883D-05 -0.58717872D-06 -0.19825044D-06
MO   19     MO 0.0        OCC NO =    0.0000000  ORB. ENERGY =    0.000882
 -0.00000000D+00  0.00000000D+00  0.00000000D+00 -0.00000000D+00  0.00000000D+00
 -0.00000000D+00  0.00000000D+00 -0.00000000D+00  0.00000000D+00  0.00000000D+00
 -0.00000000D+00  0.00000000D+00  0.00000000D+00  0.00000000D+00 -0.00000000D+00
 -0.00000000D+00  0.00000000D+00 -0.00000000D+00  0.00000000D+00 -0.00000000D+00
  0.00000000D+00 -0.00000000D+00 -0.23880397D-08  0.20846879D-08  0.30335344D-09
  0.11065109D-07 -0.20032611D-07  0.19338881D-06  0.29920405D-07 -0.26119622D-07
 -0.38007948D-08 -0.13863778D-06  0.25099407D-06 -0.24230214D-05
MO   20     MO 0.0        OCC NO =    0.0000000  ORB. ENERGY =    0.000882
 -0.00000000D+00  0.00000000D+00  0.00000000D+00 -0.00000000D+00  0.00000000D+00
 -0.00000000D+00  0.00000000D+00 -0.00000000D+00 -0.00000000D+00 -0.00000000D+00
 -0.00000000D+00  0.00000000D+00  0.00000000D+00  0.00000000D+00  0.00000000D+00
  0.00000000D+00  0.00000000D+00 -0.00000000D+00 -0.00000000D+00 -0.00000000D+00
 -0.00000000D+00  0.00000000D+00 -0.59488320D-07 -0.52908338D-07  0.11239666D-06
 -0.33894562D-09 -0.54821020D-09 -0.71849834D-09  0.74534549D-06  0.66290308D-06
 -0.14082486D-05  0.42467427D-08  0.68686799D-08  0.90022571D-08
MO   21     MO 0.0        OCC NO =    0.0000000  ORB. ENERGY =    0.001497
 -0.81079603D-02  0.12427730D-02  0.64578458D-02 -0.12767645D-02  0.12933162D-02
  0.14019910D-02  0.29608642D-02 -0.10653786D-02 -0.15016909D-02 -0.72872803D-04
 -0.00000000D+00  0.00000000D+00 -0.00000000D+00  0.00000000D+00 -0.00000000D+00
  0.00000000D+00 -0.00000000D+00  0.00000000D+00 -0.00000000D+00  0.00000000D+00
 -0.00000000D+00  0.00000000D+00  0.28570791D-06  0.28570791D-06  0.28570791D-06
 -0.00000000D+00 -0.00000000D+00 -0.00000000D+00  0.37867283D-05  0.37867283D-05
  0.37867283D-05  0.00000000D+00  0.00000000D+00  0.00000000D+00
MO   22     MO 0.0        OCC NO =    0.0000000  ORB. ENERGY =    0.002257
 -0.00000000D+00  0.00000000D+00  0.00000000D+00 -0.00000000D+00  0.00000000D+00
 -0.00000000D+00  0.00000000D+00 -0.00000000D+00  0.00000000D+00 -0.00000000D+00
 -0.67365577D-06 -0.31965433D-05  0.80353435D-05  0.72196056D-05  0.34257531D-04
 -0.86115220D-04 -0.30221400D-04 -0.14340265D-03  0.36047988D-03  0.15550927D-04
  0.73790233D-04 -0.18549095D-03  0.00000000D+00  0.00000000D+00  0.00000000D+00
 -0.00000000D+00  0.00000000D+00 -0.00000000D+00  0.00000000D+00  0.00000000D+00
  0.00000000D+00 -0.00000000D+00 -0.00000000D+00  0.00000000D+00
MO   23     MO 0.0        OCC NO =    0.0000000  ORB. ENERGY =    0.002257
 -0.00000000D+00  0.00000000D+00 -0.00000000D+00  0.00000000D+00 -0.00000000D+00
  0.00000000D+00 -0.00000000D+00  0.00000000D+00 -0.00000000D+00  0.00000000D+00
 -0.15281645D-05  0.79768521D-05  0.30451587D-05  0.16377423D-04 -0.85488364D-04
 -0.32635134D-04 -0.68556190D-04  0.35785585D-03  0.13661127D-03  0.35276734D-04
 -0.18414071D-03 -0.70295614D-04 -0.00000000D+00  0.00000000D+00  0.00000000D+00
 -0.00000000D+00 -0.00000000D+00 -0.00000000D+00  0.00000000D+00 -0.00000000D+00
  0.00000000D+00  0.00000000D+00  0.00000000D+00  0.00000000D+00
MO   24     MO 0.0        OCC NO =    0.0000000  ORB. ENERGY =    0.002257
  0.00000000D+00 -0.00000000D+00 -0.00000000D+00  0.00000000D+00  0.00000000D+00
 -0.00000000D+00  0.00000000D+00 -0.00000000D+00  0.00000000D+00 -0.00000000D+00
 -0.85117183D-05 -0.11791475D-05 -0.11826706D-05  0.91220555D-04  0.12636990D-04
  0.12674745D-04 -0.38185090D-03 -0.52898671D-04 -0.53056715D-04  0.19648777D-03
  0.27219892D-04  0.27301217D-04 -0.00000000D+00 -0.00000000D+00 -0.00000000D+00
 -0.00000000D+00  0.00000000D+00  0.00000000D+00 -0.00000000D+00 -0.00000000D+00
 -0.00000000D+00  0.00000000D+00 -0.00000000D+00  0.00000000D+00
MO   25     MO 0.0        OCC NO =    0.0000000  ORB. ENERGY =    0.003498
  0.59102362D-02  0.83454605D-02 -0.24364292D-01  0.10144822D-01 -0.33702497D-02
  0.71054574D-02  0.38409635D-02 -0.62548769D-03 -0.42671755D-02  0.24937587D-03
  0.00000000D+00 -0.00000000D+00 -0.00000000D+00 -0.00000000D+00  0.00000000D+00
  0.00000000D+00  0.00000000D+00 -0.00000000D+00 -0.00000000D+00 -0.00000000D+00
 -0.00000000D+00  0.00000000D+00 -0.19471578D-06 -0.19471578D-06 -0.19471578D-06
  0.00000000D+00 -0.00000000D+00  0.00000000D+00 -0.41077220D-05 -0.41077220D-05
 -0.41077220D-05 -0.00000000D+00  0.00000000D+00 -0.00000000D+00
MO   26     MO 0.0        OCC NO =    0.0000000  ORB. ENERGY =    0.007750
  0.00000000D+00  0.00000000D+00 -0.00000000D+00  0.00000000D+00 -0.00000000D+00
  0.00000000D+00 -0.00000000D+00  0.00000000D+00  0.00000000D+00  0.00000000D+00
  0.43454836D-06  0.16377487D-06 -0.34327436D-05 -0.52955212D-05 -0.19958044D-05
  0.41832324D-04  0.39938725D-04  0.15052321D-04 -0.31549862D-03 -0.17045419D-03
 -0.64241685D-04  0.13465142D-02 -0.00000000D+00 -0.00000000D+00 -0.00000000D+00
 -0.00000000D+00  0.00000000D+00  0.00000000D+00 -0.00000000D+00 -0.00000000D+00
 -0.00000000D+00  0.00000000D+00  0.00000000D+00 -0.00000000D+00
MO   27     MO 0.0        OCC NO =    0.0000000  ORB. ENERGY =    0.007750
 -0.00000000D+00  0.00000000D+00  0.00000000D+00 -0.00000000D+00  0.00000000D+00
 -0.00000000D+00  0.00000000D+00 -0.00000000D+00 -0.00000000D+00 -0.00000000D+00
  0.28809115D-05 -0.19038735D-05  0.27385922D-06 -0.35107550D-04  0.23201106D-04
 -0.33373214D-05  0.26478050D-03 -0.17498232D-03  0.25170017D-04 -0.11300547D-02
  0.74680573D-03 -0.10742293D-03  0.00000000D+00 -0.00000000D+00  0.00000000D+00
 -0.00000000D+00  0.00000000D+00 -0.00000000D+00  0.00000000D+00  0.00000000D+00
  0.00000000D+00 -0.00000000D+00 -0.00000000D+00  0.00000000D+00
MO   28     MO 0.0        OCC NO =    0.0000000  ORB. ENERGY =    0.007750
 -0.00000000D+00  0.00000000D+00  0.00000000D+00 -0.00000000D+00  0.00000000D+00
 -0.00000000D+00  0.00000000D+00 -0.00000000D+00  0.00000000D+00 -0.00000000D+00
 -0.18737397D-05 -0.28892607D-05 -0.37504087D-06  0.22833889D-04  0.35209296D-04
  0.45703466D-05 -0.17221277D-03 -0.26554787D-03 -0.34469471D-04  0.73498562D-03
  0.11333298D-02  0.14711200D-03  0.00000000D+00  0.00000000D+00  0.00000000D+00
 -0.00000000D+00 -0.00000000D+00  0.00000000D+00  0.00000000D+00  0.00000000D+00
  0.00000000D+00 -0.00000000D+00  0.00000000D+00 -0.00000000D+00
MO   29     MO 0.0        OCC NO =    0.0000000  ORB. ENERGY =    0.009797
  0.33480476D-02  0.71578284D-02 -0.24657558D-01  0.35296205D-01 -0.24057426D-01
  0.19278138D-02 -0.19293304D-01  0.83956766D-02  0.47488824D-02  0.12113608D-02
  0.00000000D+00 -0.00000000D+00  0.00000000D+00 -0.00000000D+00  0.00000000D+00
 -0.00000000D+00  0.00000000D+00 -0.00000000D+00  0.00000000D+00  0.00000000D+00
  0.00000000D+00 -0.00000000D+00 -0.10998745D-06 -0.10998745D-06 -0.10998745D-06
  0.00000000D+00  0.00000000D+00  0.00000000D+00 -0.25733303D-05 -0.25733303D-05
 -0.25733303D-05 -0.00000000D+00 -0.00000000D+00 -0.00000000D+00
MO   30     MO 0.0        OCC NO =    0.0000000  ORB. ENERGY =    0.035826
 -0.17308249D-02 -0.37787822D-02  0.14225675D-01 -0.32616146D-01  0.76880048D-01
 -0.83813301D-01  0.70288156D-02 -0.12478209D-01  0.27184003D-01 -0.44120083D-02
 -0.00000000D+00  0.00000000D+00 -0.00000000D+00  0.00000000D+00 -0.00000000D+00
  0.00000000D+00 -0.00000000D+00  0.00000000D+00 -0.00000000D+00  0.00000000D+00
 -0.00000000D+00  0.00000000D+00  0.57284285D-07  0.57284285D-07  0.57284285D-07
 -0.00000000D+00 -0.00000000D+00 -0.00000000D+00  0.13266314D-05  0.13266314D-05
  0.13266314D-05  0.00000000D+00  0.00000000D+00  0.00000000D+00
MO   31     MO 0.0        OCC NO =    0.0000000  ORB. ENERGY =    0.143520
 -0.80519752D-03 -0.17088347D-02  0.65017076D-02 -0.16003134D-01  0.55233858D-01
 -0.17092383D+00  0.28378345D+00 -0.12612971D+00  0.22220806D-01 -0.25787355D-01
 -0.00000000D+00  0.00000000D+00  0.00000000D+00  0.00000000D+00 -0.00000000D+00
  0.00000000D+00 -0.00000000D+00  0.00000000D+00  0.00000000D+00 -0.00000000D+00
 -0.00000000D+00 -0.00000000D+00  0.26753988D-07  0.26753988D-07  0.26753988D-07
 -0.00000000D+00 -0.00000000D+00 -0.00000000D+00  0.61016168D-06  0.61016168D-06
  0.61016168D-06  0.00000000D+00  0.00000000D+00  0.00000000D+00
MO   32     MO 0.0        OCC NO =    0.0000000  ORB. ENERGY =    0.603981
 -0.35359089D-03 -0.73897609D-03  0.28064060D-02 -0.68087002D-02  0.24181811D-01
 -0.94621252D-01  0.32971917D+00 -0.71395348D+00  0.44603981D+00 -0.98126836D-01
 -0.00000000D+00  0.00000000D+00  0.00000000D+00  0.00000000D+00 -0.00000000D+00
 -0.00000000D+00 -0.00000000D+00  0.00000000D+00  0.00000000D+00 -0.00000000D+00
 -0.00000000D+00 -0.00000000D+00  0.11765714D-07  0.11765714D-07  0.11765714D-07
 -0.00000000D+00 -0.00000000D+00  0.00000000D+00  0.26650324D-06  0.26650324D-06
  0.26650324D-06  0.00000000D+00  0.00000000D+00  0.00000000D+00
MO   33     MO 0.0        OCC NO =    0.0000000  ORB. ENERGY =    2.138250
  0.17151542D-03  0.35677356D-03 -0.13534583D-02  0.32554793D-02 -0.11425636D-01
  0.45131235D-01 -0.18192540D+00  0.65183498D+00 -0.14805431D+01  0.75152477D+00
  0.00000000D+00 -0.00000000D+00 -0.00000000D+00 -0.00000000D+00  0.00000000D+00
  0.00000000D+00  0.00000000D+00 -0.00000000D+00 -0.00000000D+00  0.00000000D+00
  0.00000000D+00  0.00000000D+00 -0.57094411D-08 -0.57094411D-08 -0.57094411D-08
 -0.00000000D+00  0.00000000D+00 -0.00000000D+00 -0.12906637D-06 -0.12906637D-06
 -0.12906637D-06 -0.00000000D+00 -0.00000000D+00 -0.00000000D+00
MO   34     MO 0.0        OCC NO =    0.0000000  ORB. ENERGY =    7.681450
 -0.87125208D-04 -0.18093260D-03  0.68607089D-03 -0.16441501D-02  0.57266069D-02
 -0.22353047D-01  0.90346193D-01 -0.35973657D+00  0.12450747D+01 -0.24209945D+01
  0.00000000D+00  0.00000000D+00  0.00000000D+00  0.00000000D+00 -0.00000000D+00
 -0.00000000D+00 -0.00000000D+00  0.00000000D+00  0.00000000D+00  0.00000000D+00
 -0.00000000D+00 -0.00000000D+00  0.29006262D-08  0.29006262D-08  0.29006262D-08
  0.00000000D+00 -0.00000000D+00 -0.00000000D+00  0.65526178D-07  0.65526178D-07
  0.65526178D-07 -0.00000000D+00  0.00000000D+00 -0.00000000D+00
END DATA
 THE  HF ENERGY =     -0.035086880338 THE VIRIAL(-V/T)=   1.64642847


 $MOSPIN $END
 3 3 3 3 3 3 3 3 3 3 3 3 3 3 3 3 3 3 3 3 3 3 3 3 3 3 3 3 3 3 3 3 3 3


