[Molden Format]
[Title]
 Molden2AIM, Version 3.1.0 (02/25/2015)           Time: Thu Oct 17 11:08:19 2024

[Atoms] AU
H       1       1     0.00000000     0.00000000     0.00000000
[GTO]
    1 0
 S   3 1.0
    0.3386500000D+02      0.2549381454D-01
    0.5094790000D+01      0.1903731086D+00
    0.1158790000D+01      0.8521614860D+00
 S   1 1.0
    0.3258400000D+00      0.1000000000D+01
 S   1 1.0
    0.1027410000D+00      0.1000000000D+01
 S   1 1.0
    0.3600000000D-01      0.1000000000D+01
 P   1 1.0
    0.7500000000D+00      0.1000000000D+01


[MO]
 Ene=         -0.04251750
 Spin= Alpha
 Occup=        2.00000000
    1       -0.1531291100
    2       -0.2919015200
    3       -0.3151240400
    4       -0.4299122300
    5        0.0000000000
    6        0.0000000000
    7        0.0000000000
 Ene=          0.28366300
 Spin= Alpha
 Occup=        0.00000000
    1       -0.1288033700
    2        0.1166670000
    3       -1.5904928600
    4        1.7519002800
    5        0.0000000000
    6        0.0000000000
    7        0.0000000000
 Ene=          0.83086100
 Spin= Alpha
 Occup=        0.00000000
    1        0.0942290000
    2        1.7256262900
    3       -2.4858131300
    4        1.0093411300
    5        0.0000000000
    6        0.0000000000
    7        0.0000000000
 Ene=          1.90671000
 Spin= Alpha
 Occup=        0.00000000
    1        0.0000000000
    2        0.0000000000
    3        0.0000000000
    4        0.0000000000
    5        1.0000000000
    6        0.0000000000
    7        0.0000000000
 Ene=          1.90671000
 Spin= Alpha
 Occup=        0.00000000
    1        0.0000000000
    2        0.0000000000
    3        0.0000000000
    4        0.0000000000
    5        0.0000000000
    6        1.0000000000
    7        0.0000000000
 Ene=          1.90671000
 Spin= Alpha
 Occup=        0.00000000
    1        0.0000000000
    2        0.0000000000
    3        0.0000000000
    4        0.0000000000
    5        0.0000000000
    6        0.0000000000
    7        1.0000000000
 Ene=          3.03229000
 Spin= Alpha
 Occup=        0.00000000
    1       -1.5945979700
    2        2.1551384000
    3       -1.4275429000
    4        0.4972626500
    5        0.0000000000
    6        0.0000000000
    7        0.0000000000

