 Molden2AIM, Version 3.1.0 (02/25/2015)           Time: Thu Oct 17 18:28:40 2024
GAUSSIAN             14 MOL ORBITALS     18 PRIMITIVES        2 NUCLEI
  H    1    (CENTRE  1)   0.00000000  0.00000000  0.00000000  CHARGE =  1.0
  H    2    (CENTRE  2)  10.00000000  0.00000000  0.00000000  CHARGE =  1.0
CENTRE ASSIGNMENTS    1  1  1  1  1  1  1  1  1  2  2  2  2  2  2  2  2  2
TYPE ASSIGNMENTS      1  1  1  1  1  1  2  3  4  1  1  1  1  1  1  2  3  4
EXPONENTS  0.3386500D+02 0.5094790D+01 0.1158790D+01 0.3258400D+00 0.1027410D+00
EXPONENTS  0.3600000D-01 0.7500000D+00 0.7500000D+00 0.7500000D+00 0.3386500D+02
EXPONENTS  0.5094790D+01 0.1158790D+01 0.3258400D+00 0.1027410D+00 0.3600000D-01
EXPONENTS  0.7500000D+00 0.7500000D+00 0.7500000D+00
MO    1     MO 0.0        OCC NO =    2.0000000  ORB. ENERGY =    0.053236
  0.27420000D-01  0.49461769D-01  0.72919684D-01  0.62266902D-01  0.29677480D-01
  0.16570148D-01 -0.20794391D-02  0.00000000D+00  0.00000000D+00  0.27420000D-01
  0.49461769D-01  0.72919684D-01  0.62266902D-01  0.29677480D-01  0.16570147D-01
  0.20794391D-02  0.00000000D+00 -0.00000000D+00
MO    2     MO 0.0        OCC NO =    2.0000000  ORB. ENERGY =    0.058907
 -0.27638266D-01 -0.49855488D-01 -0.73500131D-01 -0.65892553D-01 -0.25708216D-01
 -0.20513401D-01  0.24385974D-02 -0.00000000D+00 -0.00000000D+00  0.27638266D-01
  0.49855488D-01  0.73500131D-01  0.65892553D-01  0.25708216D-01  0.20513401D-01
  0.24385974D-02 -0.00000000D+00 -0.00000000D+00
MO    3     MO 0.0        OCC NO =    0.0000000  ORB. ENERGY =    0.381869
  0.23517465D-01  0.42422152D-01  0.62541434D-01 -0.33390390D-01  0.15942839D+00
 -0.84649280D-01  0.68590370D-03 -0.00000000D+00  0.00000000D+00 -0.23517465D-01
 -0.42422152D-01 -0.62541434D-01  0.33390390D-01 -0.15942838D+00  0.84649279D-01
  0.68590370D-03  0.00000000D+00  0.00000000D+00
MO    4     MO 0.0        OCC NO =    0.0000000  ORB. ENERGY =    0.382800
 -0.23468308D-01 -0.42333480D-01 -0.62410708D-01  0.19827429D-01 -0.13753532D+00
  0.65382587D-01  0.26725114D-02 -0.00000000D+00 -0.00000000D+00 -0.23468308D-01
 -0.42333480D-01 -0.62410708D-01  0.19827429D-01 -0.13753532D+00  0.65382589D-01
 -0.26725114D-02 -0.00000000D+00  0.00000000D+00
MO    5     MO 0.0        OCC NO =    0.0000000  ORB. ENERGY =    0.930498
 -0.17025426D-01 -0.30711439D-01 -0.45276756D-01 -0.37686342D+00  0.23248037D+00
 -0.46994281D-01  0.52297371D-02  0.00000000D+00  0.00000000D+00  0.17025426D-01
  0.30711439D-01  0.45276756D-01  0.37686341D+00 -0.23248035D+00  0.46994279D-01
  0.52297371D-02 -0.00000000D+00  0.00000000D+00
MO    6     MO 0.0        OCC NO =    0.0000000  ORB. ENERGY =    0.932532
  0.17007160D-01  0.30678490D-01  0.45228181D-01  0.37559446D+00 -0.22672073D+00
  0.39613021D-01  0.18636814D-02 -0.00000000D+00 -0.00000000D+00  0.17007160D-01
  0.30678490D-01  0.45228181D-01  0.37559448D+00 -0.22672074D+00  0.39613024D-01
 -0.18636814D-02  0.00000000D+00  0.00000000D+00
MO    7     MO 0.0        OCC NO =    0.0000000  ORB. ENERGY =    2.004560
  0.00000000D+00  0.00000000D+00  0.00000000D+00  0.00000000D+00 -0.00000000D+00
  0.00000000D+00  0.00000000D+00  0.65359042D+00 -0.26021533D+00 -0.00000000D+00
 -0.00000000D+00 -0.00000000D+00 -0.00000000D+00  0.00000000D+00 -0.00000000D+00
  0.00000000D+00 -0.65357914D+00  0.26021084D+00
MO    8     MO 0.0        OCC NO =    0.0000000  ORB. ENERGY =    2.004560
 -0.00000000D+00 -0.00000000D+00 -0.00000000D+00 -0.00000000D+00  0.00000000D+00
 -0.00000000D+00 -0.00000000D+00 -0.26021533D+00 -0.65359042D+00  0.00000000D+00
  0.00000000D+00  0.00000000D+00  0.00000000D+00 -0.00000000D+00  0.00000000D+00
 -0.00000000D+00  0.26021084D+00  0.65357914D+00
MO    9     MO 0.0        OCC NO =    0.0000000  ORB. ENERGY =    2.004570
 -0.00000000D+00 -0.00000000D+00 -0.00000000D+00 -0.00000000D+00  0.00000000D+00
 -0.00000000D+00 -0.00000000D+00  0.67470189D+00  0.19912994D+00  0.00000000D+00
  0.00000000D+00  0.00000000D+00  0.00000000D+00 -0.00000000D+00  0.00000000D+00
 -0.00000000D+00  0.67471354D+00  0.19913337D+00
MO   10     MO 0.0        OCC NO =    0.0000000  ORB. ENERGY =    2.004570
 -0.00000000D+00 -0.00000000D+00 -0.00000000D+00 -0.00000000D+00  0.00000000D+00
 -0.00000000D+00 -0.00000000D+00  0.19912994D+00 -0.67470189D+00  0.00000000D+00
  0.00000000D+00  0.00000000D+00  0.00000000D+00 -0.00000000D+00  0.00000000D+00
 -0.00000000D+00  0.19913337D+00 -0.67471354D+00
MO   11     MO 0.0        OCC NO =    0.0000000  ORB. ENERGY =    2.005860
 -0.62278235D-03 -0.11234105D-02 -0.16562032D-02 -0.22882568D-02  0.36403070D-02
 -0.12393885D-02  0.70351692D+00  0.00000000D+00 -0.00000000D+00 -0.62278490D-03
 -0.11234151D-02 -0.16562100D-02 -0.22882568D-02  0.36403096D-02 -0.12393897D-02
 -0.70351653D+00  0.00000000D+00  0.00000000D+00
MO   12     MO 0.0        OCC NO =    0.0000000  ORB. ENERGY =    2.006120
  0.24662831D-02  0.44488229D-02  0.65587375D-02  0.26939439D-02 -0.45451812D-02
  0.19023912D-02  0.70350146D+00  0.00000000D+00  0.00000000D+00 -0.24662831D-02
 -0.44488229D-02 -0.65587375D-02 -0.26939409D-02  0.45451786D-02 -0.19023900D-02
  0.70350185D+00  0.00000000D+00  0.00000000D+00
MO   13     MO 0.0        OCC NO =    0.0000000  ORB. ENERGY =    3.133200
 -0.28778148D+00 -0.51911673D+00 -0.76531489D+00  0.47026027D+00 -0.13372730D+00
  0.23350301D-01  0.83820846D-02 -0.00000000D+00  0.00000000D+00  0.28778115D+00
  0.51911613D+00  0.76531401D+00 -0.47025973D+00  0.13372715D+00 -0.23350279D-01
  0.83820946D-02  0.00000000D+00  0.00000000D+00
MO   14     MO 0.0        OCC NO =    0.0000000  ORB. ENERGY =    3.133320
  0.28778847D+00  0.51912935D+00  0.76533350D+00 -0.46984501D+00  0.13068712D+00
 -0.19568618D-01  0.41451589D-02 -0.00000000D+00 -0.00000000D+00  0.28778881D+00
  0.51912995D+00  0.76533438D+00 -0.46984556D+00  0.13068728D+00 -0.19568646D-01
 -0.41451489D-02  0.00000000D+00  0.00000000D+00
END DATA
 THE  HF ENERGY =     -1.152884719217 THE VIRIAL(-V/T)=   2.12030249


 $MOSPIN $END
 3 3 3 3 3 3 3 3 3 3 3 3 3 3


