 Molden2AIM, Version 3.1.0 (02/25/2015)           Time: Thu Oct 17 18:28:40 2024
GAUSSIAN             68 MOL ORBITALS     68 PRIMITIVES        2 NUCLEI
  H    1    (CENTRE  1)   0.00000000  0.00000000  0.00000000  CHARGE =  1.0
  H    2    (CENTRE  2)  10.00000000  0.00000000  0.00000000  CHARGE =  1.0
CENTRE ASSIGNMENTS    1  1  1  1  1  1  1  1  1  1  1  1  1  1  1  1  1  1  1  1
CENTRE ASSIGNMENTS    1  1  1  1  1  1  1  1  1  1  1  1  1  1  2  2  2  2  2  2
CENTRE ASSIGNMENTS    2  2  2  2  2  2  2  2  2  2  2  2  2  2  2  2  2  2  2  2
CENTRE ASSIGNMENTS    2  2  2  2  2  2  2  2
TYPE ASSIGNMENTS      1  1  1  1  1  1  1  1  1  1  2  3  4  2  3  4  2  3  4  2
TYPE ASSIGNMENTS      3  4  5  6  7  8  9 10  5  6  7  8  9 10  1  1  1  1  1  1
TYPE ASSIGNMENTS      1  1  1  1  2  3  4  2  3  4  2  3  4  2  3  4  5  6  7  8
TYPE ASSIGNMENTS      9 10  5  6  7  8  9 10
EXPONENTS  0.1000000D-03 0.3000000D-03 0.9000000D-03 0.2700000D-02 0.8100000D-02
EXPONENTS  0.2430000D-01 0.7290000D-01 0.2187000D+00 0.6561000D+00 0.1968300D+01
EXPONENTS  0.1000000D-03 0.1000000D-03 0.1000000D-03 0.3000000D-03 0.3000000D-03
EXPONENTS  0.3000000D-03 0.9000000D-03 0.9000000D-03 0.9000000D-03 0.2700000D-02
EXPONENTS  0.2700000D-02 0.2700000D-02 0.1000000D-03 0.1000000D-03 0.1000000D-03
EXPONENTS  0.1000000D-03 0.1000000D-03 0.1000000D-03 0.3000000D-03 0.3000000D-03
EXPONENTS  0.3000000D-03 0.3000000D-03 0.3000000D-03 0.3000000D-03 0.1000000D-03
EXPONENTS  0.3000000D-03 0.9000000D-03 0.2700000D-02 0.8100000D-02 0.2430000D-01
EXPONENTS  0.7290000D-01 0.2187000D+00 0.6561000D+00 0.1968300D+01 0.1000000D-03
EXPONENTS  0.1000000D-03 0.1000000D-03 0.3000000D-03 0.3000000D-03 0.3000000D-03
EXPONENTS  0.9000000D-03 0.9000000D-03 0.9000000D-03 0.2700000D-02 0.2700000D-02
EXPONENTS  0.2700000D-02 0.1000000D-03 0.1000000D-03 0.1000000D-03 0.1000000D-03
EXPONENTS  0.1000000D-03 0.1000000D-03 0.3000000D-03 0.3000000D-03 0.3000000D-03
EXPONENTS  0.3000000D-03 0.3000000D-03 0.3000000D-03
MO    1     MO 0.0        OCC NO =    1.0000000  ORB. ENERGY =   -0.278169
 -0.63434422D-05 -0.43214816D-05  0.34799120D-04 -0.33407414D-03  0.22740978D-02
 -0.22968404D-01 -0.26530425D-01  0.11582604D-01  0.79673422D-02  0.76394219D-02
 -0.13038376D-07 -0.00000000D+00 -0.00000000D+00 -0.65218774D-07  0.00000000D+00
  0.00000000D+00  0.81615859D-05 -0.00000000D+00 -0.00000000D+00 -0.28494310D-04
  0.00000000D+00  0.00000000D+00  0.31916089D-10  0.30290082D-09  0.30290082D-09
  0.00000000D+00 -0.00000000D+00 -0.00000000D+00  0.72775048D-08  0.23113534D-08
  0.23113534D-08 -0.00000000D+00  0.00000000D+00  0.00000000D+00 -0.63434422D-05
 -0.43214816D-05  0.34799120D-04 -0.33407414D-03  0.22740978D-02 -0.22968404D-01
 -0.26530425D-01  0.11582604D-01  0.79673422D-02  0.76394219D-02  0.13038376D-07
  0.00000000D+00  0.00000000D+00  0.65218774D-07  0.00000000D+00 -0.00000000D+00
 -0.81615859D-05  0.00000000D+00 -0.00000000D+00  0.28494310D-04  0.00000000D+00
 -0.00000000D+00  0.31916089D-10  0.30290082D-09  0.30290082D-09 -0.00000000D+00
  0.00000000D+00  0.00000000D+00  0.72775048D-08  0.23113534D-08  0.23113534D-08
  0.00000000D+00 -0.00000000D+00 -0.00000000D+00
MO    2     MO 0.0        OCC NO =    0.0000000  ORB. ENERGY =   -0.251451
 -0.13739536D-06  0.73125643D-06  0.48156560D-02 -0.33225780D-02  0.20496913D-02
 -0.21765131D-01 -0.42226644D-01  0.17548583D-01  0.76958293D-02  0.99762430D-02
  0.47591335D-07 -0.00000000D+00 -0.00000000D+00 -0.10304123D-06 -0.00000000D+00
  0.00000000D+00  0.42835092D-04  0.00000000D+00 -0.00000000D+00 -0.75766160D-04
 -0.00000000D+00  0.00000000D+00  0.13363724D-08  0.26483753D-08  0.26483753D-08
 -0.00000000D+00 -0.00000000D+00 -0.00000000D+00  0.23689442D-07  0.83895995D-08
  0.83895995D-08 -0.00000000D+00  0.00000000D+00  0.00000000D+00  0.13739536D-06
 -0.73125643D-06 -0.48156560D-02  0.33225780D-02 -0.20496913D-02  0.21765131D-01
  0.42226644D-01 -0.17548583D-01 -0.76958293D-02 -0.99762430D-02  0.47591335D-07
  0.00000000D+00  0.00000000D+00 -0.10304123D-06  0.00000000D+00 -0.00000000D+00
  0.42835092D-04 -0.00000000D+00  0.00000000D+00 -0.75766160D-04  0.00000000D+00
 -0.00000000D+00 -0.13363724D-08 -0.26483753D-08 -0.26483753D-08 -0.00000000D+00
 -0.00000000D+00  0.00000000D+00 -0.23689442D-07 -0.83895995D-08 -0.83895995D-08
 -0.00000000D+00  0.00000000D+00 -0.00000000D+00
MO    3     MO 0.0        OCC NO =    0.0000000  ORB. ENERGY =   -0.145413
 -0.12241962D-03 -0.30833159D-03  0.12230653D-02 -0.29652158D-02  0.18830805D-01
 -0.13910465D-01 -0.55922696D-01  0.19656171D-01  0.14658411D-02  0.85491061D-02
 -0.27110418D-06  0.00000000D+00  0.00000000D+00 -0.25563608D-05 -0.00000000D+00
  0.00000000D+00 -0.21343802D-04 -0.00000000D+00 -0.00000000D+00  0.11680563D-03
  0.00000000D+00  0.00000000D+00  0.41289487D-08  0.38882243D-08  0.38882243D-08
 -0.00000000D+00  0.00000000D+00  0.00000000D+00  0.85067216D-07  0.10381215D-06
  0.10381215D-06  0.00000000D+00 -0.00000000D+00 -0.00000000D+00 -0.12241962D-03
 -0.30833159D-03  0.12230653D-02 -0.29652158D-02  0.18830805D-01 -0.13910465D-01
 -0.55922696D-01  0.19656171D-01  0.14658411D-02  0.85491061D-02  0.27110418D-06
 -0.00000000D+00 -0.00000000D+00  0.25563608D-05  0.00000000D+00 -0.00000000D+00
  0.21343802D-04  0.00000000D+00  0.00000000D+00 -0.11680563D-03 -0.00000000D+00
 -0.00000000D+00  0.41289487D-08  0.38882243D-08  0.38882243D-08  0.00000000D+00
 -0.00000000D+00 -0.00000000D+00  0.85067216D-07  0.10381215D-06  0.10381215D-06
 -0.00000000D+00  0.00000000D+00  0.00000000D+00
MO    4     MO 0.0        OCC NO =    0.0000000  ORB. ENERGY =   -0.132809
 -0.94670806D-06  0.27441733D-05  0.24661209D-01 -0.16927248D-01  0.28925680D-01
  0.38491755D-02 -0.66669636D-01  0.23808039D-01 -0.10845499D-02  0.91611643D-02
  0.33142030D-06 -0.00000000D+00 -0.00000000D+00 -0.25725639D-06 -0.00000000D+00
  0.00000000D+00  0.21542977D-03  0.00000000D+00 -0.00000000D+00 -0.35678994D-03
 -0.00000000D+00  0.00000000D+00  0.10617229D-07  0.17057889D-07  0.17057889D-07
 -0.00000000D+00 -0.00000000D+00 -0.00000000D+00  0.17152872D-06  0.94849875D-07
  0.94849875D-07 -0.00000000D+00  0.00000000D+00  0.00000000D+00  0.94670806D-06
 -0.27441733D-05 -0.24661209D-01  0.16927248D-01 -0.28925680D-01 -0.38491755D-02
  0.66669636D-01 -0.23808039D-01  0.10845499D-02 -0.91611643D-02  0.33142030D-06
  0.00000000D+00  0.00000000D+00 -0.25725639D-06  0.00000000D+00 -0.00000000D+00
  0.21542977D-03 -0.00000000D+00  0.00000000D+00 -0.35678994D-03  0.00000000D+00
 -0.00000000D+00 -0.10617229D-07 -0.17057889D-07 -0.17057889D-07 -0.00000000D+00
 -0.00000000D+00  0.00000000D+00 -0.17152872D-06 -0.94849875D-07 -0.94849875D-07
 -0.00000000D+00  0.00000000D+00 -0.00000000D+00
MO    5     MO 0.0        OCC NO =    0.0000000  ORB. ENERGY =   -0.105664
 -0.00000000D+00  0.00000000D+00  0.00000000D+00 -0.00000000D+00  0.00000000D+00
 -0.00000000D+00  0.00000000D+00 -0.00000000D+00  0.00000000D+00 -0.00000000D+00
 -0.00000000D+00  0.49708313D-06 -0.28736570D-07 -0.00000000D+00 -0.82755789D-05
  0.47841358D-06  0.00000000D+00  0.78270247D-04 -0.45248255D-05 -0.00000000D+00
 -0.60988034D-03  0.35257363D-04 -0.00000000D+00 -0.00000000D+00  0.00000000D+00
  0.73955126D-07 -0.42753662D-08 -0.00000000D+00 -0.00000000D+00 -0.00000000D+00
 -0.00000000D+00 -0.34994815D-06  0.20230597D-07  0.00000000D+00 -0.00000000D+00
 -0.00000000D+00 -0.00000000D+00  0.00000000D+00 -0.00000000D+00  0.00000000D+00
 -0.00000000D+00  0.00000000D+00 -0.00000000D+00  0.00000000D+00 -0.00000000D+00
  0.49708313D-06 -0.28736570D-07 -0.00000000D+00 -0.82755789D-05  0.47841358D-06
  0.00000000D+00  0.78270247D-04 -0.45248255D-05 -0.00000000D+00 -0.60988034D-03
  0.35257363D-04  0.00000000D+00  0.00000000D+00  0.00000000D+00 -0.73955126D-07
  0.42753662D-08  0.00000000D+00  0.00000000D+00  0.00000000D+00  0.00000000D+00
  0.34994815D-06 -0.20230597D-07 -0.00000000D+00
MO    6     MO 0.0        OCC NO =    0.0000000  ORB. ENERGY =   -0.105664
 -0.00000000D+00  0.00000000D+00  0.00000000D+00 -0.00000000D+00  0.00000000D+00
 -0.00000000D+00  0.00000000D+00 -0.00000000D+00  0.00000000D+00 -0.00000000D+00
 -0.00000000D+00 -0.28736570D-07 -0.49708313D-06 -0.00000000D+00  0.47841358D-06
  0.82755789D-05  0.00000000D+00 -0.45248255D-05 -0.78270247D-04 -0.00000000D+00
  0.35257363D-04  0.60988034D-03 -0.00000000D+00 -0.00000000D+00 -0.00000000D+00
 -0.42753662D-08 -0.73955126D-07  0.00000000D+00 -0.00000000D+00 -0.00000000D+00
 -0.00000000D+00  0.20230597D-07  0.34994815D-06 -0.00000000D+00 -0.00000000D+00
 -0.00000000D+00 -0.00000000D+00  0.00000000D+00 -0.00000000D+00  0.00000000D+00
 -0.00000000D+00  0.00000000D+00 -0.00000000D+00 -0.00000000D+00 -0.00000000D+00
 -0.28736570D-07 -0.49708313D-06 -0.00000000D+00  0.47841358D-06  0.82755789D-05
  0.00000000D+00 -0.45248255D-05 -0.78270247D-04 -0.00000000D+00  0.35257363D-04
  0.60988034D-03  0.00000000D+00  0.00000000D+00  0.00000000D+00  0.42753662D-08
  0.73955126D-07 -0.00000000D+00  0.00000000D+00  0.00000000D+00  0.00000000D+00
 -0.20230597D-07 -0.34994815D-06  0.00000000D+00
MO    7     MO 0.0        OCC NO =    0.0000000  ORB. ENERGY =   -0.091704
 -0.25710422D-03 -0.61306371D-03  0.25714764D-02 -0.10056082D-01  0.10193035D-01
  0.31850024D-01 -0.87075546D-01  0.30392944D-01 -0.45083667D-02  0.10613089D-01
 -0.56378823D-06  0.00000000D+00  0.00000000D+00 -0.52675356D-05 -0.00000000D+00
  0.00000000D+00  0.67815733D-05 -0.00000000D+00 -0.00000000D+00 -0.37142588D-04
  0.00000000D+00  0.00000000D+00  0.77556375D-08  0.86254978D-08  0.86254978D-08
  0.00000000D+00  0.00000000D+00 -0.00000000D+00  0.19554247D-06  0.20571439D-06
  0.20571439D-06 -0.00000000D+00 -0.00000000D+00 -0.00000000D+00 -0.25710422D-03
 -0.61306371D-03  0.25714764D-02 -0.10056082D-01  0.10193035D-01  0.31850024D-01
 -0.87075546D-01  0.30392944D-01 -0.45083667D-02  0.10613089D-01  0.56378823D-06
 -0.00000000D+00 -0.00000000D+00  0.52675356D-05  0.00000000D+00 -0.00000000D+00
 -0.67815733D-05  0.00000000D+00  0.00000000D+00  0.37142588D-04 -0.00000000D+00
 -0.00000000D+00  0.77556375D-08  0.86254978D-08  0.86254978D-08 -0.00000000D+00
 -0.00000000D+00  0.00000000D+00  0.19554247D-06  0.20571439D-06  0.20571439D-06
  0.00000000D+00  0.00000000D+00  0.00000000D+00
MO    8     MO 0.0        OCC NO =    0.0000000  ORB. ENERGY =   -0.083245
  0.30225552D-03  0.10605972D-02 -0.40313358D-02  0.45911289D-02  0.75979080D-02
 -0.97471668D-03 -0.77798941D-02  0.16914475D-02  0.67445939D-03  0.84622699D-03
  0.68239396D-06 -0.00000000D+00 -0.00000000D+00  0.81493741D-05 -0.00000000D+00
 -0.00000000D+00  0.24868607D-03 -0.00000000D+00  0.00000000D+00 -0.16881168D-02
  0.00000000D+00 -0.00000000D+00 -0.13104472D-07 -0.78492757D-08 -0.78492757D-08
  0.00000000D+00 -0.00000000D+00 -0.00000000D+00 -0.16749069D-06 -0.32049608D-06
 -0.32049608D-06 -0.00000000D+00  0.00000000D+00  0.00000000D+00  0.30225552D-03
  0.10605972D-02 -0.40313358D-02  0.45911289D-02  0.75979080D-02 -0.97471668D-03
 -0.77798941D-02  0.16914475D-02  0.67445939D-03  0.84622699D-03 -0.68239396D-06
  0.00000000D+00  0.00000000D+00 -0.81493741D-05  0.00000000D+00  0.00000000D+00
 -0.24868607D-03  0.00000000D+00 -0.00000000D+00  0.16881168D-02 -0.00000000D+00
  0.00000000D+00 -0.13104472D-07 -0.78492757D-08 -0.78492757D-08 -0.00000000D+00
  0.00000000D+00  0.00000000D+00 -0.16749069D-06 -0.32049608D-06 -0.32049608D-06
 -0.00000000D+00 -0.00000000D+00 -0.00000000D+00
MO    9     MO 0.0        OCC NO =    0.0000000  ORB. ENERGY =   -0.081730
  0.00000000D+00 -0.00000000D+00 -0.00000000D+00  0.00000000D+00 -0.00000000D+00
 -0.00000000D+00  0.00000000D+00 -0.00000000D+00  0.00000000D+00 -0.00000000D+00
  0.00000000D+00  0.11143863D-08  0.12855496D-07  0.00000000D+00 -0.16521647D-07
 -0.19057889D-06 -0.00000000D+00  0.27321282D-04  0.31515912D-03  0.00000000D+00
 -0.18052176D-03 -0.20823722D-02  0.00000000D+00 -0.00000000D+00 -0.00000000D+00
 -0.64921767D-09 -0.74889095D-08  0.00000000D+00  0.00000000D+00  0.00000000D+00
  0.00000000D+00  0.14044295D-07  0.16200507D-06 -0.00000000D+00  0.00000000D+00
  0.00000000D+00  0.00000000D+00 -0.00000000D+00  0.00000000D+00  0.00000000D+00
 -0.00000000D+00  0.00000000D+00 -0.00000000D+00  0.00000000D+00  0.00000000D+00
 -0.11143863D-08 -0.12855496D-07  0.00000000D+00  0.16521647D-07  0.19057889D-06
 -0.00000000D+00 -0.27321282D-04 -0.31515912D-03  0.00000000D+00  0.18052176D-03
  0.20823722D-02 -0.00000000D+00  0.00000000D+00  0.00000000D+00 -0.64921767D-09
 -0.74889095D-08 -0.00000000D+00 -0.00000000D+00 -0.00000000D+00 -0.00000000D+00
  0.14044295D-07  0.16200507D-06  0.00000000D+00
MO   10     MO 0.0        OCC NO =    0.0000000  ORB. ENERGY =   -0.081730
  0.00000000D+00  0.00000000D+00  0.00000000D+00 -0.00000000D+00  0.00000000D+00
  0.00000000D+00 -0.00000000D+00  0.00000000D+00 -0.00000000D+00  0.00000000D+00
 -0.00000000D+00  0.12855496D-07 -0.11143863D-08 -0.00000000D+00 -0.19057889D-06
  0.16521647D-07  0.00000000D+00  0.31515912D-03 -0.27321282D-04 -0.00000000D+00
 -0.20823722D-02  0.18052176D-03 -0.00000000D+00 -0.00000000D+00 -0.00000000D+00
 -0.74889095D-08  0.64921767D-09 -0.00000000D+00 -0.00000000D+00 -0.00000000D+00
 -0.00000000D+00  0.16200507D-06 -0.14044295D-07  0.00000000D+00 -0.00000000D+00
 -0.00000000D+00 -0.00000000D+00  0.00000000D+00 -0.00000000D+00 -0.00000000D+00
  0.00000000D+00 -0.00000000D+00  0.00000000D+00 -0.00000000D+00 -0.00000000D+00
 -0.12855496D-07  0.11143863D-08 -0.00000000D+00  0.19057889D-06 -0.16521647D-07
  0.00000000D+00 -0.31515912D-03  0.27321282D-04 -0.00000000D+00  0.20823722D-02
 -0.18052176D-03  0.00000000D+00  0.00000000D+00  0.00000000D+00 -0.74889095D-08
  0.64921767D-09  0.00000000D+00  0.00000000D+00  0.00000000D+00  0.00000000D+00
  0.16200507D-06 -0.14044295D-07 -0.00000000D+00
MO   11     MO 0.0        OCC NO =    0.0000000  ORB. ENERGY =   -0.079832
  0.28204678D-05 -0.88112086D-05 -0.82199831D-01  0.83716221D-01 -0.12156049D-01
 -0.38601490D-01  0.77975166D-01 -0.26912639D-01  0.51571389D-02 -0.87309151D-02
 -0.98071922D-06  0.00000000D+00  0.00000000D+00  0.57495578D-06  0.00000000D+00
 -0.00000000D+00 -0.71630354D-03  0.00000000D+00  0.00000000D+00  0.16721854D-02
 -0.00000000D+00  0.00000000D+00 -0.31184415D-07 -0.50106301D-07 -0.50106301D-07
  0.00000000D+00  0.00000000D+00  0.00000000D+00 -0.52169786D-06 -0.28805540D-06
 -0.28805540D-06  0.00000000D+00 -0.00000000D+00  0.00000000D+00 -0.28204678D-05
  0.88112086D-05  0.82199831D-01 -0.83716221D-01  0.12156049D-01  0.38601490D-01
 -0.77975166D-01  0.26912639D-01 -0.51571389D-02  0.87309151D-02 -0.98071922D-06
 -0.00000000D+00 -0.00000000D+00  0.57495578D-06 -0.00000000D+00  0.00000000D+00
 -0.71630354D-03 -0.00000000D+00 -0.00000000D+00  0.16721854D-02  0.00000000D+00
 -0.00000000D+00  0.31184415D-07  0.50106301D-07  0.50106301D-07  0.00000000D+00
  0.00000000D+00 -0.00000000D+00  0.52169786D-06  0.28805540D-06  0.28805540D-06
  0.00000000D+00 -0.00000000D+00 -0.00000000D+00
MO   12     MO 0.0        OCC NO =    0.0000000  ORB. ENERGY =   -0.063204
  0.11543049D-04  0.71358075D-04  0.10646040D+00 -0.42807960D+00  0.20563777D-01
 -0.66736084D-02  0.18891435D-02 -0.15610046D-02  0.11483470D-02 -0.26554219D-03
 -0.42486813D-05 -0.00000000D+00 -0.00000000D+00 -0.16264768D-04 -0.00000000D+00
  0.00000000D+00  0.11760589D-02  0.00000000D+00 -0.00000000D+00 -0.12501439D-01
  0.00000000D+00  0.00000000D+00 -0.18393384D-06 -0.16695552D-06 -0.16695552D-06
 -0.00000000D+00 -0.00000000D+00  0.00000000D+00 -0.24801519D-05 -0.26876995D-05
 -0.26876995D-05 -0.00000000D+00  0.00000000D+00 -0.00000000D+00 -0.11543056D-04
 -0.71358075D-04 -0.10646040D+00  0.42807960D+00 -0.20563777D-01  0.66736084D-02
 -0.18891435D-02  0.15610046D-02 -0.11483470D-02  0.26554219D-03 -0.42486813D-05
  0.00000000D+00  0.00000000D+00 -0.16264768D-04  0.00000000D+00 -0.00000000D+00
  0.11760589D-02 -0.00000000D+00  0.00000000D+00 -0.12501439D-01 -0.00000000D+00
 -0.00000000D+00  0.18393384D-06  0.16695552D-06  0.16695552D-06 -0.00000000D+00
 -0.00000000D+00 -0.00000000D+00  0.24801519D-05  0.26876995D-05  0.26876995D-05
 -0.00000000D+00  0.00000000D+00  0.00000000D+00
MO   13     MO 0.0        OCC NO =    0.0000000  ORB. ENERGY =   -0.060879
 -0.31706006D-03 -0.76725196D-03  0.34906483D-02  0.90354900D-03 -0.27953836D-01
  0.80709103D-01 -0.11486296D+00  0.37830019D-01 -0.71899056D-02  0.12315077D-01
 -0.69059350D-06  0.00000000D+00  0.00000000D+00 -0.67719600D-05 -0.00000000D+00
 -0.00000000D+00  0.55577482D-04  0.00000000D+00  0.00000000D+00  0.12978213D-03
 -0.00000000D+00  0.00000000D+00  0.87937934D-08  0.10960815D-07  0.10960815D-07
  0.00000000D+00  0.00000000D+00 -0.00000000D+00  0.25903991D-06  0.24804091D-06
  0.24804091D-06 -0.00000000D+00 -0.00000000D+00 -0.00000000D+00 -0.31706006D-03
 -0.76725196D-03  0.34906484D-02  0.90354891D-03 -0.27953836D-01  0.80709103D-01
 -0.11486296D+00  0.37830019D-01 -0.71899056D-02  0.12315077D-01  0.69059350D-06
 -0.00000000D+00 -0.00000000D+00  0.67719600D-05  0.00000000D+00  0.00000000D+00
 -0.55577482D-04 -0.00000000D+00  0.00000000D+00 -0.12978213D-03  0.00000000D+00
 -0.00000000D+00  0.87937934D-08  0.10960815D-07  0.10960815D-07 -0.00000000D+00
 -0.00000000D+00  0.00000000D+00  0.25903991D-06  0.24804091D-06  0.24804091D-06
  0.00000000D+00  0.00000000D+00  0.00000000D+00
MO   14     MO 0.0        OCC NO =    0.0000000  ORB. ENERGY =   -0.051432
  0.98731231D-05  0.64284476D-06 -0.19316635D+00 -0.71668021D-01  0.37508814D-01
 -0.78777472D-01  0.10270177D+00 -0.34228247D-01  0.80437958D-02 -0.10350662D-01
 -0.34807153D-05  0.00000000D+00  0.00000000D+00 -0.49344824D-05  0.00000000D+00
 -0.00000000D+00 -0.15855845D-02 -0.00000000D+00  0.00000000D+00 -0.21525878D-02
  0.00000000D+00 -0.00000000D+00 -0.12417439D-06 -0.16105553D-06 -0.16105553D-06
  0.00000000D+00  0.00000000D+00  0.00000000D+00 -0.19940395D-05 -0.15073470D-05
 -0.15073470D-05  0.00000000D+00 -0.00000000D+00 -0.00000000D+00 -0.98731231D-05
 -0.64284476D-06  0.19316635D+00  0.71668021D-01 -0.37508814D-01  0.78777472D-01
 -0.10270177D+00  0.34228247D-01 -0.80437958D-02  0.10350662D-01 -0.34807153D-05
 -0.00000000D+00 -0.00000000D+00 -0.49344824D-05 -0.00000000D+00  0.00000000D+00
 -0.15855845D-02  0.00000000D+00 -0.00000000D+00 -0.21525878D-02  0.00000000D+00
  0.00000000D+00  0.12417439D-06  0.16105553D-06  0.16105553D-06  0.00000000D+00
  0.00000000D+00 -0.00000000D+00  0.19940395D-05  0.15073470D-05  0.15073470D-05
  0.00000000D+00 -0.00000000D+00  0.00000000D+00
MO   15     MO 0.0        OCC NO =    0.0000000  ORB. ENERGY =   -0.049841
 -0.00000000D+00 -0.00000000D+00 -0.00000000D+00  0.00000000D+00 -0.00000000D+00
  0.00000000D+00 -0.00000000D+00  0.00000000D+00 -0.00000000D+00  0.00000000D+00
  0.00000000D+00 -0.77398945D-06 -0.43050960D-06  0.00000000D+00  0.14070020D-04
  0.78260502D-05 -0.00000000D+00 -0.17921771D-03 -0.99684771D-04  0.00000000D+00
  0.31326498D-03  0.17424477D-03  0.00000000D+00  0.00000000D+00  0.00000000D+00
 -0.10636221D-06 -0.59160966D-07  0.00000000D+00  0.00000000D+00  0.00000000D+00
  0.00000000D+00  0.53928874D-06  0.29996407D-06 -0.00000000D+00 -0.00000000D+00
  0.00000000D+00  0.00000000D+00 -0.00000000D+00  0.00000000D+00 -0.00000000D+00
  0.00000000D+00 -0.00000000D+00  0.00000000D+00 -0.00000000D+00  0.00000000D+00
 -0.77398945D-06 -0.43050960D-06  0.00000000D+00  0.14070020D-04  0.78260502D-05
 -0.00000000D+00 -0.17921771D-03 -0.99684771D-04  0.00000000D+00  0.31326498D-03
  0.17424477D-03 -0.00000000D+00 -0.00000000D+00 -0.00000000D+00  0.10636221D-06
  0.59160966D-07 -0.00000000D+00 -0.00000000D+00 -0.00000000D+00 -0.00000000D+00
 -0.53928874D-06 -0.29996407D-06  0.00000000D+00
MO   16     MO 0.0        OCC NO =    0.0000000  ORB. ENERGY =   -0.049841
 -0.00000000D+00 -0.00000000D+00 -0.00000000D+00  0.00000000D+00 -0.00000000D+00
  0.00000000D+00 -0.00000000D+00  0.00000000D+00 -0.00000000D+00  0.00000000D+00
  0.00000000D+00  0.43050960D-06 -0.77398945D-06  0.00000000D+00 -0.78260502D-05
  0.14070020D-04 -0.00000000D+00  0.99684771D-04 -0.17921771D-03  0.00000000D+00
 -0.17424477D-03  0.31326498D-03  0.00000000D+00  0.00000000D+00  0.00000000D+00
  0.59160966D-07 -0.10636221D-06  0.00000000D+00  0.00000000D+00  0.00000000D+00
  0.00000000D+00 -0.29996407D-06  0.53928874D-06 -0.00000000D+00  0.00000000D+00
  0.00000000D+00  0.00000000D+00 -0.00000000D+00  0.00000000D+00 -0.00000000D+00
  0.00000000D+00 -0.00000000D+00  0.00000000D+00 -0.00000000D+00  0.00000000D+00
  0.43050960D-06 -0.77398945D-06  0.00000000D+00 -0.78260502D-05  0.14070020D-04
 -0.00000000D+00  0.99684771D-04 -0.17921771D-03  0.00000000D+00 -0.17424477D-03
  0.31326498D-03 -0.00000000D+00 -0.00000000D+00 -0.00000000D+00 -0.59160966D-07
  0.10636221D-06 -0.00000000D+00 -0.00000000D+00 -0.00000000D+00 -0.00000000D+00
  0.29996407D-06 -0.53928874D-06  0.00000000D+00
MO   17     MO 0.0        OCC NO =    0.0000000  ORB. ENERGY =   -0.045118
  0.32717270D-03  0.12740545D-02 -0.76786309D-02  0.19982781D-01 -0.43074569D-01
  0.79304211D-01 -0.94507622D-01  0.29083528D-01 -0.51381593D-02  0.93953331D-02
  0.71508320D-06 -0.00000000D+00 -0.00000000D+00  0.98452614D-05  0.00000000D+00
 -0.00000000D+00  0.53694663D-04  0.00000000D+00  0.00000000D+00 -0.41095504D-04
 -0.00000000D+00 -0.00000000D+00 -0.10521351D-07 -0.10094890D-07 -0.10094890D-07
  0.00000000D+00 -0.00000000D+00  0.00000000D+00 -0.26937487D-06 -0.32539525D-06
 -0.32539525D-06 -0.00000000D+00  0.00000000D+00 -0.00000000D+00  0.32717270D-03
  0.12740545D-02 -0.76786310D-02  0.19982781D-01 -0.43074569D-01  0.79304211D-01
 -0.94507622D-01  0.29083528D-01 -0.51381593D-02  0.93953331D-02 -0.71508320D-06
  0.00000000D+00  0.00000000D+00 -0.98452614D-05 -0.00000000D+00  0.00000000D+00
 -0.53694663D-04 -0.00000000D+00 -0.00000000D+00  0.41095504D-04  0.00000000D+00
  0.00000000D+00 -0.10521351D-07 -0.10094890D-07 -0.10094890D-07 -0.00000000D+00
  0.00000000D+00 -0.00000000D+00 -0.26937487D-06 -0.32539525D-06 -0.32539525D-06
  0.00000000D+00  0.00000000D+00  0.00000000D+00
MO   18     MO 0.0        OCC NO =    0.0000000  ORB. ENERGY =   -0.042253
  0.34753102D-03  0.17437724D-02 -0.48981830D-02 -0.36678147D-02  0.14297595D-01
 -0.21593667D-01  0.23690388D-01 -0.74850334D-02  0.15417024D-02 -0.23508437D-02
  0.79409943D-06 -0.00000000D+00 -0.00000000D+00  0.12719346D-04 -0.00000000D+00
  0.00000000D+00  0.90617257D-03 -0.00000000D+00  0.00000000D+00 -0.80668854D-03
  0.00000000D+00 -0.00000000D+00 -0.18371344D-07 -0.69521145D-08 -0.69521145D-08
 -0.00000000D+00 -0.00000000D+00 -0.00000000D+00 -0.13097480D-06 -0.46908835D-06
 -0.46908835D-06 -0.00000000D+00  0.00000000D+00  0.00000000D+00  0.34753102D-03
  0.17437724D-02 -0.48981830D-02 -0.36678147D-02  0.14297595D-01 -0.21593667D-01
  0.23690388D-01 -0.74850334D-02  0.15417024D-02 -0.23508437D-02 -0.79409943D-06
  0.00000000D+00  0.00000000D+00 -0.12719346D-04  0.00000000D+00  0.00000000D+00
 -0.90617257D-03  0.00000000D+00 -0.00000000D+00  0.80668854D-03 -0.00000000D+00
  0.00000000D+00 -0.18371344D-07 -0.69521145D-08 -0.69521145D-08  0.00000000D+00
 -0.00000000D+00  0.00000000D+00 -0.13097480D-06 -0.46908835D-06 -0.46908835D-06
 -0.00000000D+00  0.00000000D+00 -0.00000000D+00
MO   19     MO 0.0        OCC NO =    0.0000000  ORB. ENERGY =   -0.042078
 -0.00000000D+00  0.00000000D+00  0.00000000D+00 -0.00000000D+00  0.00000000D+00
 -0.00000000D+00  0.00000000D+00 -0.00000000D+00  0.00000000D+00 -0.00000000D+00
 -0.00000000D+00 -0.16403772D-07 -0.12795771D-07 -0.00000000D+00  0.23641369D-06
  0.18441359D-06  0.00000000D+00 -0.86033004D-03 -0.67109747D-03 -0.00000000D+00
  0.79083869D-03  0.61689098D-03 -0.00000000D+00 -0.00000000D+00  0.00000000D+00
  0.11594846D-07  0.90445204D-08 -0.00000000D+00 -0.00000000D+00 -0.00000000D+00
 -0.00000000D+00 -0.28524021D-06 -0.22250064D-06 -0.00000000D+00 -0.00000000D+00
 -0.00000000D+00 -0.00000000D+00  0.00000000D+00 -0.00000000D+00  0.00000000D+00
 -0.00000000D+00  0.00000000D+00 -0.00000000D+00  0.00000000D+00 -0.00000000D+00
  0.16403772D-07  0.12795771D-07 -0.00000000D+00 -0.23641369D-06 -0.18441359D-06
  0.00000000D+00  0.86033004D-03  0.67109747D-03 -0.00000000D+00 -0.79083869D-03
 -0.61689098D-03  0.00000000D+00  0.00000000D+00 -0.00000000D+00  0.11594846D-07
  0.90445204D-08  0.00000000D+00  0.00000000D+00  0.00000000D+00  0.00000000D+00
 -0.28524021D-06 -0.22250064D-06  0.00000000D+00
MO   20     MO 0.0        OCC NO =    0.0000000  ORB. ENERGY =   -0.042078
  0.00000000D+00  0.00000000D+00  0.00000000D+00 -0.00000000D+00  0.00000000D+00
 -0.00000000D+00  0.00000000D+00 -0.00000000D+00  0.00000000D+00 -0.00000000D+00
 -0.00000000D+00  0.12795771D-07 -0.16403772D-07 -0.00000000D+00 -0.18441359D-06
  0.23641369D-06  0.00000000D+00  0.67109747D-03 -0.86033004D-03 -0.00000000D+00
 -0.61689098D-03  0.79083869D-03 -0.00000000D+00 -0.00000000D+00 -0.00000000D+00
 -0.90445204D-08  0.11594846D-07 -0.00000000D+00 -0.00000000D+00 -0.00000000D+00
 -0.00000000D+00  0.22250064D-06 -0.28524021D-06  0.00000000D+00 -0.00000000D+00
 -0.00000000D+00 -0.00000000D+00  0.00000000D+00 -0.00000000D+00  0.00000000D+00
 -0.00000000D+00  0.00000000D+00 -0.00000000D+00  0.00000000D+00 -0.00000000D+00
 -0.12795771D-07  0.16403772D-07 -0.00000000D+00  0.18441359D-06 -0.23641369D-06
  0.00000000D+00 -0.67109747D-03  0.86033004D-03 -0.00000000D+00  0.61689098D-03
 -0.79083869D-03  0.00000000D+00  0.00000000D+00  0.00000000D+00 -0.90445204D-08
  0.11594846D-07  0.00000000D+00  0.00000000D+00  0.00000000D+00  0.00000000D+00
  0.22250064D-06 -0.28524021D-06 -0.00000000D+00
MO   21     MO 0.0        OCC NO =    0.0000000  ORB. ENERGY =   -0.038637
 -0.53887447D-05 -0.75891098D-04 -0.18474805D+00 -0.16262328D-01  0.55214227D-01
 -0.85281615D-01  0.99927387D-01 -0.31769498D-01  0.72250488D-02 -0.95240005D-02
  0.20654815D-05  0.00000000D+00  0.00000000D+00  0.17105041D-04  0.00000000D+00
 -0.00000000D+00 -0.19493927D-02  0.00000000D+00 -0.00000000D+00  0.59762916D-03
 -0.00000000D+00  0.00000000D+00  0.94697111D-07  0.69176721D-07  0.69176721D-07
  0.00000000D+00  0.00000000D+00  0.00000000D+00  0.14536375D-05  0.17923229D-05
  0.17923229D-05  0.00000000D+00 -0.00000000D+00 -0.00000000D+00  0.53887447D-05
  0.75891098D-04  0.18474805D+00  0.16262328D-01 -0.55214227D-01  0.85281615D-01
 -0.99927387D-01  0.31769498D-01 -0.72250488D-02  0.95240005D-02  0.20654815D-05
 -0.00000000D+00 -0.00000000D+00  0.17105041D-04 -0.00000000D+00  0.00000000D+00
 -0.19493927D-02 -0.00000000D+00  0.00000000D+00  0.59762916D-03  0.00000000D+00
 -0.00000000D+00 -0.94697111D-07 -0.69176721D-07 -0.69176721D-07  0.00000000D+00
  0.00000000D+00 -0.00000000D+00 -0.14536375D-05 -0.17923229D-05 -0.17923229D-05
  0.00000000D+00 -0.00000000D+00  0.00000000D+00
MO   22     MO 0.0        OCC NO =    0.0000000  ORB. ENERGY =   -0.035126
 -0.15587097D-04 -0.30374229D-03 -0.11977144D+01  0.22923420D+00 -0.44021031D-01
  0.54019064D-01 -0.59791748D-01  0.19015456D-01 -0.44853501D-02  0.56342295D-02
  0.64367699D-05  0.00000000D+00  0.00000000D+00  0.48999914D-04  0.00000000D+00
 -0.00000000D+00 -0.11195611D-01 -0.00000000D+00 -0.00000000D+00  0.58366998D-02
 -0.00000000D+00  0.00000000D+00  0.30470540D-06  0.21478509D-06  0.21478509D-06
  0.00000000D+00  0.00000000D+00  0.00000000D+00  0.42254740D-05  0.55375309D-05
  0.55375309D-05  0.00000000D+00 -0.00000000D+00 -0.00000000D+00  0.15587090D-04
  0.30374229D-03  0.11977144D+01 -0.22923420D+00  0.44021031D-01 -0.54019064D-01
  0.59791748D-01 -0.19015456D-01  0.44853501D-02 -0.56342295D-02  0.64367699D-05
 -0.00000000D+00 -0.00000000D+00  0.48999915D-04 -0.00000000D+00  0.00000000D+00
 -0.11195611D-01  0.00000000D+00  0.00000000D+00  0.58366998D-02  0.00000000D+00
 -0.00000000D+00 -0.30470540D-06 -0.21478509D-06 -0.21478509D-06  0.00000000D+00
  0.00000000D+00 -0.00000000D+00 -0.42254740D-05 -0.55375309D-05 -0.55375309D-05
  0.00000000D+00 -0.00000000D+00  0.00000000D+00
MO   23     MO 0.0        OCC NO =    0.0000000  ORB. ENERGY =   -0.031708
  0.12326646D-02  0.49142521D-02 -0.13611749D-01  0.16420440D-01 -0.23038156D-01
  0.34531164D-01 -0.37020154D-01  0.10429401D-01 -0.14687143D-02  0.34129059D-02
  0.26892106D-05 -0.00000000D+00 -0.00000000D+00  0.38751164D-04  0.00000000D+00
 -0.00000000D+00  0.40135114D-04  0.00000000D+00 -0.00000000D+00 -0.56892021D-04
 -0.00000000D+00  0.00000000D+00 -0.35491871D-07 -0.39815364D-07 -0.39815364D-07
  0.00000000D+00 -0.00000000D+00  0.00000000D+00 -0.11193976D-05 -0.11953403D-05
 -0.11953403D-05 -0.00000000D+00 -0.00000000D+00  0.00000000D+00  0.12326646D-02
  0.49142521D-02 -0.13611749D-01  0.16420440D-01 -0.23038156D-01  0.34531164D-01
 -0.37020154D-01  0.10429401D-01 -0.14687143D-02  0.34129059D-02 -0.26892106D-05
  0.00000000D+00  0.00000000D+00 -0.38751164D-04 -0.00000000D+00  0.00000000D+00
 -0.40135116D-04 -0.00000000D+00  0.00000000D+00  0.56892021D-04  0.00000000D+00
 -0.00000000D+00 -0.35491871D-07 -0.39815364D-07 -0.39815364D-07 -0.00000000D+00
  0.00000000D+00 -0.00000000D+00 -0.11193976D-05 -0.11953403D-05 -0.11953403D-05
  0.00000000D+00  0.00000000D+00 -0.00000000D+00
MO   24     MO 0.0        OCC NO =    0.0000000  ORB. ENERGY =   -0.029322
 -0.00000000D+00 -0.00000000D+00 -0.00000000D+00  0.00000000D+00 -0.00000000D+00
  0.00000000D+00 -0.00000000D+00  0.00000000D+00 -0.00000000D+00  0.00000000D+00
 -0.00000000D+00 -0.00000000D+00  0.00000000D+00 -0.00000000D+00  0.00000000D+00
 -0.00000000D+00 -0.00000000D+00 -0.00000000D+00  0.00000000D+00  0.00000000D+00
  0.00000000D+00 -0.00000000D+00 -0.00000000D+00 -0.23092613D-07  0.23092613D-07
 -0.00000000D+00 -0.00000000D+00  0.99997994D-09  0.00000000D+00  0.56838870D-06
 -0.56838870D-06 -0.00000000D+00  0.00000000D+00 -0.24612930D-07 -0.00000000D+00
 -0.00000000D+00  0.00000000D+00 -0.00000000D+00  0.00000000D+00 -0.00000000D+00
  0.00000000D+00 -0.00000000D+00  0.00000000D+00 -0.00000000D+00 -0.00000000D+00
 -0.00000000D+00  0.00000000D+00  0.00000000D+00  0.00000000D+00 -0.00000000D+00