[Molden Format]
[Atoms] AU
H       1       1     0.00000000     0.00000000     0.00000000
H       2       1    10.00000000     0.00000000     0.00000000
[GTO]
  1 0
s  3 1.00
   3.3865000000E+01   2.5493800000E-02
   5.0947900000E+00   1.9037300000E-01
   1.1587900000E+00   8.5216100000E-01
s  1 1.00
   3.2584000000E-01   1.0000000000E+00
s  1 1.00
   1.0274100000E-01   1.0000000000E+00
s  1 1.00
   3.6000000000E-02   1.0000000000E+00
p  1 1.00
   7.5000000000E-01   1.0000000000E+00
 
  2 0
s  3 1.00
   3.3865000000E+01   2.5493800000E-02
   5.0947900000E+00   1.9037300000E-01
   1.1587900000E+00   8.5216100000E-01
s  1 1.00
   3.2584000000E-01   1.0000000000E+00
s  1 1.00
   1.0274100000E-01   1.0000000000E+00
s  1 1.00
   3.6000000000E-02   1.0000000000E+00
p  1 1.00
   7.5000000000E-01   1.0000000000E+00
 
 
[MO]
Ene=     5.32359E-02
Spin= Alpha
Occup=   2.0000000000
   1       0.10750019
   2       0.20257874
   3       0.22946111
   4       0.28131275
   5      -0.00209016
   6       0.00000000
   7       0.00000000
   8       0.10750019
   9       0.20257874
  10       0.22946111
  11       0.28131274
  12       0.00209016
  13       0.00000000
  14      -0.00000000
Ene=     5.89071E-02
Spin= Alpha
Occup=   2.0000000000
   1      -0.10835590
   2      -0.21437441
   3      -0.19877145
   4      -0.34825768
   5       0.00245117
   6      -0.00000000
   7      -0.00000000
   8       0.10835590
   9       0.21437441
  10       0.19877145
  11       0.34825768
  12       0.00245117
  13      -0.00000000
  14      -0.00000000
Ene=     3.81869E-01
Spin= Alpha
Occup=   0.0000000000
   1       0.09220029
   2      -0.10863208
   3       1.23267252
   4      -1.43709772
   5       0.00068944
   6      -0.00000000
   7       0.00000000
   8      -0.09220029
   9       0.10863208
  10      -1.23267249
  11       1.43709770
  12       0.00068944
  13       0.00000000
  14       0.00000000
Ene=     3.82800E-01
Spin= Alpha
Occup=   0.0000000000
   1      -0.09200757
   2       0.06450643
   3      -1.06339914
   4       1.11000551
   5       0.00268629
   6      -0.00000000
   7      -0.00000000
   8      -0.09200757
   9       0.06450643
  10      -1.06339916
  11       1.11000554
  12      -0.00268629
  13      -0.00000000
  14       0.00000000
Ene=     9.30498E-01
Spin= Alpha
Occup=   0.0000000000
   1      -0.06674823
   2      -1.22608506
   3       1.79749772
   4      -0.79782574
   5       0.00525670
   6       0.00000000
   7       0.00000000
   8       0.06674823
   9       1.22608500
  10      -1.79749763
  11       0.79782570
  12       0.00525670
  13      -0.00000000
  14       0.00000000
Ene=     9.32532E-01
Spin= Alpha
Occup=   0.0000000000
   1       0.06667662
   2       1.22195663
   3      -1.75296518
   4       0.67251349
   5       0.00187329
   6      -0.00000000
   7      -0.00000000
   8       0.06667662
   9       1.22195669
  10      -1.75296527
  11       0.67251353
  12      -0.00187329
  13       0.00000000
  14       0.00000000
Ene=     2.00456E+00
Spin= Alpha
Occup=   0.0000000000
   1       0.00000000
   2       0.00000000
   3      -0.00000000
   4       0.00000000
   5       0.00000000
   6       0.65696013
   7      -0.26155692
   8      -0.00000000
   9      -0.00000000
  10       0.00000000
  11      -0.00000000
  12       0.00000000
  13      -0.65694879
  14       0.26155240
Ene=     2.00456E+00
Spin= Alpha
Occup=   0.0000000000
   1      -0.00000000
   2      -0.00000000
   3       0.00000000
   4      -0.00000000
   5      -0.00000000
   6      -0.26155692
   7      -0.65696013
   8       0.00000000
   9       0.00000000
  10      -0.00000000
  11       0.00000000
  12      -0.00000000
  13       0.26155240
  14       0.65694879
Ene=     2.00457E+00
Spin= Alpha
Occup=   0.0000000000
   1      -0.00000000
   2      -0.00000000
   3       0.00000000
   4      -0.00000000
   5      -0.00000000
   6       0.67818044
   7       0.20015659
   8       0.00000000
   9       0.00000000
  10      -0.00000000
  11       0.00000000
  12      -0.00000000
  13       0.67819215
  14       0.20016004
Ene=     2.00457E+00
Spin= Alpha
Occup=   0.0000000000
   1      -0.00000000
   2      -0.00000000
   3       0.00000000
   4      -0.00000000
   5      -0.00000000
   6       0.20015659
   7      -0.67818044
   8       0.00000000
   9       0.00000000
  10      -0.00000000
  11       0.00000000
  12      -0.00000000
  13       0.20016004
  14      -0.67819215
Ene=     2.00586E+00
Spin= Alpha
Occup=   0.0000000000
   1      -0.00244162
   2      -0.00744460
   3       0.02814622
   4      -0.02104120
   5       0.70714403
   6       0.00000000
   7      -0.00000000
   8      -0.00244163
   9      -0.00744460
  10       0.02814624
  11      -0.02104122
  12      -0.70714364
  13       0.00000000
  14       0.00000000
Ene=     2.00612E+00
Spin= Alpha
Occup=   0.0000000000
   1       0.00966907
   2       0.00876446
   3      -0.03514255
   4       0.03229705
   5       0.70712849
   6       0.00000000
   7       0.00000000
   8      -0.00966907
   9      -0.00876445
  10       0.03514253
  11      -0.03229703
  12       0.70712888
  13       0.00000000
  14       0.00000000
Ene=     3.13320E+00
Spin= Alpha
Occup=   0.0000000000
   1      -1.12824811
   2       1.52994177
   3      -1.03395621
   4       0.39641997
   5       0.00842530
   6      -0.00000000
   7       0.00000000
   8       1.12824681
   9      -1.52994000
  10       1.03395504
  11      -0.39641958
  12       0.00842531
  13       0.00000000
  14       0.00000000
Ene=     3.13332E+00
Spin= Alpha
Occup=   0.0000000000
   1       1.12827554
   2      -1.52859077
   3       1.01045008
   4      -0.33221803
   5       0.00416653
   6      -0.00000000
   7      -0.00000000
   8       1.12827685
   9      -1.52859254
  10       1.01045127
  11      -0.33221849
  12      -0.00416652
  13       0.00000000
  14       0.00000000
