[Molden Format]
[Title]
 Molden2AIM, Version 3.1.0 (02/25/2015)           Time: Thu Oct 17 18:28:40 2024

[Atoms] AU
H       1       1     0.00000000     0.00000000     0.00000000
H       2       1    10.00000000     0.00000000     0.00000000
[GTO]
    1 0
 S   3 1.0
    0.3386500000D+02      0.2549381454D-01
    0.5094790000D+01      0.1903731086D+00
    0.1158790000D+01      0.8521614860D+00
 S   1 1.0
    0.3258400000D+00      0.1000000000D+01
 S   1 1.0
    0.1027410000D+00      0.1000000000D+01
 S   1 1.0
    0.3600000000D-01      0.1000000000D+01
 P   1 1.0
    0.7500000000D+00      0.1000000000D+01

    2 0
 S   3 1.0
    0.3386500000D+02      0.2549381454D-01
    0.5094790000D+01      0.1903731086D+00
    0.1158790000D+01      0.8521614860D+00
 S   1 1.0
    0.3258400000D+00      0.1000000000D+01
 S   1 1.0
    0.1027410000D+00      0.1000000000D+01
 S   1 1.0
    0.3600000000D-01      0.1000000000D+01
 P   1 1.0
    0.7500000000D+00      0.1000000000D+01


[MO]
 Ene=          0.05323590
 Spin= Alpha
 Occup=        2.00000000
    1        0.1075001900
    2        0.2025787400
    3        0.2294611100
    4        0.2813127500
    5       -0.0020901600
    6        0.0000000000
    7        0.0000000000
    8        0.1075001900
    9        0.2025787400
   10        0.2294611100
   11        0.2813127400
   12        0.0020901600
   13        0.0000000000
   14       -0.0000000000
 Ene=          0.05890710
 Spin= Alpha
 Occup=        2.00000000
    1       -0.1083559000
    2       -0.2143744100
    3       -0.1987714500
    4       -0.3482576800
    5        0.0024511700
    6       -0.0000000000
    7       -0.0000000000
    8        0.1083559000
    9        0.2143744100
   10        0.1987714500
   11        0.3482576800
   12        0.0024511700
   13       -0.0000000000
   14       -0.0000000000
 Ene=          0.38186900
 Spin= Alpha
 Occup=        0.00000000
    1        0.0922002900
    2       -0.1086320800
    3        1.2326725200
    4       -1.4370977200
    5        0.0006894400
    6       -0.0000000000
    7        0.0000000000
    8       -0.0922002900
    9        0.1086320800
   10       -1.2326724900
   11        1.4370977000
   12        0.0006894400
   13        0.0000000000
   14        0.0000000000
 Ene=          0.38280000
 Spin= Alpha
 Occup=        0.00000000
    1       -0.0920075700
    2        0.0645064300
    3       -1.0633991400
    4        1.1100055100
    5        0.0026862900
    6       -0.0000000000
    7       -0.0000000000
    8       -0.0920075700
    9        0.0645064300
   10       -1.0633991600
   11        1.1100055400
   12       -0.0026862900
   13       -0.0000000000
   14        0.0000000000
 Ene=          0.93049800
 Spin= Alpha
 Occup=        0.00000000
    1       -0.0667482300
    2       -1.2260850600
    3        1.7974977200
    4       -0.7978257400
    5        0.0052567000
    6        0.0000000000
    7        0.0000000000
    8        0.0667482300
    9        1.2260850000
   10       -1.7974976300
   11        0.7978257000
   12        0.0052567000
   13       -0.0000000000
   14        0.0000000000
 Ene=          0.93253200
 Spin= Alpha
 Occup=        0.00000000
    1        0.0666766200
    2        1.2219566300
    3       -1.7529651800
    4        0.6725134900
    5        0.0018732900
    6       -0.0000000000
    7       -0.0000000000
    8        0.0666766200
    9        1.2219566900
   10       -1.7529652700
   11        0.6725135300
   12       -0.0018732900
   13        0.0000000000
   14        0.0000000000
 Ene=          2.00456000
 Spin= Alpha
 Occup=        0.00000000
    1        0.0000000000
    2        0.0000000000
    3       -0.0000000000
    4        0.0000000000
    5        0.0000000000
    6        0.6569601300
    7       -0.2615569200
    8       -0.0000000000
    9       -0.0000000000
   10        0.0000000000
   11       -0.0000000000
   12        0.0000000000
   13       -0.6569487900
   14        0.2615524000
 Ene=          2.00456000
 Spin= Alpha
 Occup=        0.00000000
    1       -0.0000000000
    2       -0.0000000000
    3        0.0000000000
    4       -0.0000000000
    5       -0.0000000000
    6       -0.2615569200
    7       -0.6569601300
    8        0.0000000000
    9        0.0000000000
   10       -0.0000000000
   11        0.0000000000
   12       -0.0000000000
   13        0.2615524000
   14        0.6569487900
 Ene=          2.00457000
 Spin= Alpha
 Occup=        0.00000000
    1       -0.0000000000
    2       -0.0000000000
    3        0.0000000000
    4       -0.0000000000
    5       -0.0000000000
    6        0.6781804400
    7        0.2001565900
    8        0.0000000000
    9        0.0000000000
   10       -0.0000000000
   11        0.0000000000
   12       -0.0000000000
   13        0.6781921500
   14        0.2001600400
 Ene=          2.00457000
 Spin= Alpha
 Occup=        0.00000000
    1       -0.0000000000
    2       -0.0000000000
    3        0.0000000000
    4       -0.0000000000
    5       -0.0000000000
    6        0.2001565900
    7       -0.6781804400
    8        0.0000000000
    9        0.0000000000
   10       -0.0000000000
   11        0.0000000000
   12       -0.0000000000
   13        0.2001600400
   14       -0.6781921500
 Ene=          2.00586000
 Spin= Alpha
 Occup=        0.00000000
    1       -0.0024416200
    2       -0.0074446000
    3        0.0281462200
    4       -0.0210412000
    5        0.7071440300
    6        0.0000000000
    7       -0.0000000000
    8       -0.0024416300
    9       -0.0074446000
   10        0.0281462400
   11       -0.0210412200
   12       -0.7071436400
   13        0.0000000000
   14        0.0000000000
 Ene=          2.00612000
 Spin= Alpha
 Occup=        0.00000000
    1        0.0096690700
    2        0.0087644600
    3       -0.0351425500
    4        0.0322970500
    5        0.7071284900
    6        0.0000000000
    7        0.0000000000
    8       -0.0096690700
    9       -0.0087644500
   10        0.0351425300
   11       -0.0322970300
   12        0.7071288800
   13        0.0000000000
   14        0.0000000000
 Ene=          3.13320000
 Spin= Alpha
 Occup=        0.00000000
    1       -1.1282481100
    2        1.5299417700
    3       -1.0339562100
    4        0.3964199700
    5        0.0084253000
    6       -0.0000000000
    7        0.0000000000
    8        1.1282468100
    9       -1.5299400000
   10        1.0339550400
   11       -0.3964195800
   12        0.0084253100
   13        0.0000000000
   14        0.0000000000
 Ene=          3.13332000
 Spin= Alpha
 Occup=        0.00000000
    1        1.1282755400
    2       -1.5285907700
    3        1.0104500800
    4       -0.3322180300
    5        0.0041665300
    6       -0.0000000000
    7       -0.0000000000
    8        1.1282768500
    9       -1.5285925400
   10        1.0104512700
   11       -0.3322184900
   12       -0.0041665200
   13        0.0000000000
   14        0.0000000000

