[Molden Format]
[Title]
 Molden2AIM, Version 3.1.0 (02/25/2015)           Time: Thu Oct 17 18:28:40 2024

[Atoms] AU
E+       1       1     0.00000000     0.00000000     0.00000000
E+       2       1    10.00000000     0.00000000     0.00000000
[GTO]
    1 0
 S   1 1.0
    0.1000000000D-03      0.1000000000D+01
 S   1 1.0
    0.3000000000D-03      0.1000000000D+01
 S   1 1.0
    0.9000000000D-03      0.1000000000D+01
 S   1 1.0
    0.2700000000D-02      0.1000000000D+01
 S   1 1.0
    0.8100000000D-02      0.1000000000D+01
 S   1 1.0
    0.2430000000D-01      0.1000000000D+01
 S   1 1.0
    0.7290000000D-01      0.1000000000D+01
 S   1 1.0
    0.2187000000D+00      0.1000000000D+01
 S   1 1.0
    0.6561000000D+00      0.1000000000D+01
 S   1 1.0
    0.1968300000D+01      0.1000000000D+01
 P   1 1.0
    0.1000000000D-03      0.1000000000D+01
 P   1 1.0
    0.3000000000D-03      0.1000000000D+01
 P   1 1.0
    0.9000000000D-03      0.1000000000D+01
 P   1 1.0
    0.2700000000D-02      0.1000000000D+01
 D   1 1.0
    0.1000000000D-03      0.1000000000D+01
 D   1 1.0
    0.3000000000D-03      0.1000000000D+01

    2 0
 S   1 1.0
    0.1000000000D-03      0.1000000000D+01
 S   1 1.0
    0.3000000000D-03      0.1000000000D+01
 S   1 1.0
    0.9000000000D-03      0.1000000000D+01
 S   1 1.0
    0.2700000000D-02      0.1000000000D+01
 S   1 1.0
    0.8100000000D-02      0.1000000000D+01
 S   1 1.0
    0.2430000000D-01      0.1000000000D+01
 S   1 1.0
    0.7290000000D-01      0.1000000000D+01
 S   1 1.0
    0.2187000000D+00      0.1000000000D+01
 S   1 1.0
    0.6561000000D+00      0.1000000000D+01
 S   1 1.0
    0.1968300000D+01      0.1000000000D+01
 P   1 1.0
    0.1000000000D-03      0.1000000000D+01
 P   1 1.0
    0.3000000000D-03      0.1000000000D+01
 P   1 1.0
    0.9000000000D-03      0.1000000000D+01
 P   1 1.0
    0.2700000000D-02      0.1000000000D+01
 D   1 1.0
    0.1000000000D-03      0.1000000000D+01
 D   1 1.0
    0.3000000000D-03      0.1000000000D+01


[MO]
 Ene=         -0.27816900
 Spin= Alpha
 Occup=        1.00000000
    1       -0.0089005100
    2       -0.0026600000
    3        0.0093967200
    4       -0.0395740000
    5        0.1181776300
    6       -0.5236197500
    7       -0.2653312900
    8        0.0508170600
    9        0.0153347200
   10        0.0064503300
   11       -0.0009147100
   12       -0.0000000000
   13       -0.0000000000
   14       -0.0011588600
   15        0.0000000000
   16        0.0000000000
   17        0.0367308800
   18       -0.0000000000
   19       -0.0000000000
   20       -0.0324798000
   21        0.0000000000
   22        0.0000000000
   23        0.0001939100
   24        0.0018403100
   25        0.0018403100
   26        0.0000000000
   27       -0.0000000000
   28       -0.0000000000
   29        0.0064656300
   30        0.0020535000
   31        0.0020535000
   32       -0.0000000000
   33        0.0000000000
   34        0.0000000000
   35       -0.0089005100
   36       -0.0026600000
   37        0.0093967200
   38       -0.0395740000
   39        0.1181776300
   40       -0.5236197500
   41       -0.2653312900
   42        0.0508170600
   43        0.0153347200
   44        0.0064503300
   45        0.0009147100
   46        0.0000000000
   47        0.0000000000
   48        0.0011588600
   49        0.0000000000
   50       -0.0000000000
   51       -0.0367308800
   52        0.0000000000
   53       -0.0000000000
   54        0.0324798000
   55        0.0000000000
   56       -0.0000000000
   57        0.0001939100
   58        0.0018403100
   59        0.0018403100
   60       -0.0000000000
   61        0.0000000000
   62        0.0000000000
   63        0.0064656300
   64        0.0020535000
   65        0.0020535000
   66        0.0000000000
   67       -0.0000000000
   68       -0.0000000000
 Ene=         -0.25145100
 Spin= Alpha
 Occup=        0.00000000
    1       -0.0001927800
    2        0.0004501100
    3        1.3003596300
    4       -0.3935883800
    5        0.1065159400
    6       -0.4961882700
    7       -0.4223094800
    8        0.0769919600
    9        0.0148121400
   10        0.0084234200
   11        0.0033387800
   12       -0.0000000000
   13       -0.0000000000
   14       -0.0018309200
   15       -0.0000000000
   16        0.0000000000
   17        0.1927775600
   18        0.0000000000
   19       -0.0000000000
   20       -0.0863635500
   21       -0.0000000000
   22        0.0000000000
   23        0.0081192900
   24        0.0160905200
   25        0.0160905200
   26       -0.0000000000
   27       -0.0000000000
   28       -0.0000000000
   29        0.0210466600
   30        0.0074536600
   31        0.0074536600
   32       -0.0000000000
   33        0.0000000000
   34        0.0000000000
   35        0.0001927800
   36       -0.0004501100
   37       -1.3003596300
   38        0.3935883800
   39       -0.1065159400
   40        0.4961882700
   41        0.4223094800
   42       -0.0769919600
   43       -0.0148121400
   44       -0.0084234200
   45        0.0033387800
   46        0.0000000000
   47        0.0000000000
   48       -0.0018309200
   49        0.0000000000
   50       -0.0000000000
   51        0.1927775600
   52       -0.0000000000
   53        0.0000000000
   54       -0.0863635500
   55        0.0000000000
   56       -0.0000000000
   57       -0.0081192900
   58       -0.0160905200
   59       -0.0160905200
   60       -0.0000000000
   61       -0.0000000000
   62        0.0000000000
   63       -0.0210466600
   64       -0.0074536600
   65       -0.0074536600
   66       -0.0000000000
   67        0.0000000000
   68       -0.0000000000
 Ene=         -0.14541300
 Spin= Alpha
 Occup=        0.00000000
    1       -0.1717674700
    2       -0.1897872300
    3        0.3302613000
    4       -0.3512557100
    5        0.9785770800
    6       -0.3171223400
    7       -0.5592839600
    8        0.0862387100
    9        0.0028213000
   10        0.0072184200
   11       -0.0190193700
   12        0.0000000000
   13        0.0000000000
   14       -0.0454234900
   15       -0.0000000000
   16        0.0000000000
   17       -0.0960569000
   18       -0.0000000000
   19       -0.0000000000
   20        0.1331432000
   21        0.0000000000
   22        0.0000000000
   23        0.0250859200
   24        0.0236233700
   25        0.0236233700
   26       -0.0000000000
   27        0.0000000000
   28        0.0000000000
   29        0.0755771600
   30        0.0922309200
   31        0.0922309200
   32        0.0000000000
   33       -0.0000000000
   34       -0.0000000000
   35       -0.1717674700
   36       -0.1897872300
   37        0.3302613000
   38       -0.3512557100
   39        0.9785770800
   40       -0.3171223400
   41       -0.5592839600
   42        0.0862387100
   43        0.0028213000
   44        0.0072184200
   45        0.0190193700
   46       -0.0000000000
   47       -0.0000000000
   48        0.0454234900
   49        0.0000000000
   50       -0.0000000000
   51        0.0960569000
   52        0.0000000000
   53        0.0000000000
   54       -0.1331432000
   55       -0.0000000000
   56       -0.0000000000
   57        0.0250859200
   58        0.0236233700
   59        0.0236233700
   60        0.0000000000
   61       -0.0000000000
   62       -0.0000000000
   63        0.0755771600
   64        0.0922309200
   65        0.0922309200
   66       -0.0000000000
   67        0.0000000000
   68        0.0000000000
 Ene=         -0.13280900
 Spin= Alpha
 Occup=        0.00000000
    1       -0.0013283300
    2        0.0016891200
    3        6.6592050400
    4       -2.0051803400
    5        1.5031756000
    6        0.0877511700
    7       -0.6667643100
    8        0.1044544500
    9       -0.0020874300
   10        0.0077352100
   11        0.0232508600
   12       -0.0000000000
   13       -0.0000000000
   14       -0.0045711400
   15       -0.0000000000
   16        0.0000000000
   17        0.9695327900
   18        0.0000000000
   19       -0.0000000000
   20       -0.4066940400
   21       -0.0000000000
   22        0.0000000000
   23        0.0645062400
   24        0.1036372400
   25        0.1036372400
   26       -0.0000000000
   27       -0.0000000000
   28       -0.0000000000
   29        0.1523930600
   30        0.0842684700
   31        0.0842684700
   32       -0.0000000000
   33        0.0000000000
   34        0.0000000000
   35        0.0013283300
   36       -0.0016891200
   37       -6.6592050400
   38        2.0051803400
   39       -1.5031756000
   40       -0.0877511700
   41        0.6667643100
   42       -0.1044544500
   43        0.0020874300
   44       -0.0077352100
   45        0.0232508600
   46        0.0000000000
   47        0.0000000000
   48       -0.0045711400
   49        0.0000000000
   50       -0.0000000000
   51        0.9695327900
   52       -0.0000000000
   53        0.0000000000
   54       -0.4066940400
   55        0.0000000000
   56       -0.0000000000
   57       -0.0645062400
   58       -0.1036372400
   59       -0.1036372400
   60       -0.0000000000
   61       -0.0000000000
   62        0.0000000000
   63       -0.1523930600
   64       -0.0842684700
   65       -0.0842684700
   66       -0.0000000000
   67        0.0000000000
   68       -0.0000000000
 Ene=         -0.10566400
 Spin= Alpha
 Occup=        0.00000000
    1       -0.0000000000
    2        0.0000000000
    3        0.0000000000
    4       -0.0000000000
    5        0.0000000000
    6       -0.0000000000
    7        0.0000000000
    8       -0.0000000000
    9        0.0000000000
   10       -0.0000000000
   11       -0.0000000000
   12        0.0348729700
   13       -0.0020160200
   14       -0.0000000000
   15       -0.1470471900
   16        0.0085008400
   17        0.0000000000
   18        0.3522520100
   19       -0.0203637900
   20       -0.0000000000
   21       -0.6951841200
   22        0.0401888000
   23       -0.0000000000
   24       -0.0000000000
   25        0.0000000000
   26        0.2594168600
   27       -0.0149969600
   28       -0.0000000000
   29       -0.0000000000
   30       -0.0000000000
   31       -0.0000000000
   32       -0.1795028800
   33        0.0103771100
   34        0.0000000000
   35       -0.0000000000
   36       -0.0000000000
   37       -0.0000000000
   38        0.0000000000
   39       -0.0000000000
   40        0.0000000000
   41       -0.0000000000
   42        0.0000000000
   43       -0.0000000000
   44        0.0000000000
   45       -0.0000000000
   46        0.0348729700
   47       -0.0020160200
   48       -0.0000000000
   49       -0.1470471900
   50        0.0085008400
   51        0.0000000000
   52        0.3522520100
   53       -0.0203637900
   54       -0.0000000000
   55       -0.6951841200
   56        0.0401888000
   57        0.0000000000
   58        0.0000000000
   59        0.0000000000
   60       -0.2594168600
   61        0.0149969600
   62        0.0000000000
   63        0.0000000000
   64        0.0000000000
   65        0.0000000000
   66        0.1795028800
   67       -0.0103771100
   68       -0.0000000000
 Ene=         -0.10566400
 Spin= Alpha
 Occup=        0.00000000
    1       -0.0000000000
    2        0.0000000000
    3        0.0000000000
    4       -0.0000000000
    5        0.0000000000
    6       -0.0000000000
    7        0.0000000000
    8       -0.0000000000
    9        0.0000000000
   10       -0.0000000000
   11       -0.0000000000
   12       -0.0020160200
   13       -0.0348729700
   14       -0.0000000000
   15        0.0085008400
   16        0.1470471900
   17        0.0000000000
   18       -0.0203637900
   19       -0.3522520100
   20       -0.0000000000
   21        0.0401888000
   22        0.6951841200
   23       -0.0000000000
   24       -0.0000000000
   25       -0.0000000000
   26       -0.0149969600
   27       -0.2594168600
   28        0.0000000000
   29       -0.0000000000
   30       -0.0000000000
   31       -0.0000000000
   32        0.0103771100
   33        0.1795028800
   34       -0.0000000000
   35       -0.0000000000
   36       -0.0000000000
   37       -0.0000000000
   38        0.0000000000
   39       -0.0000000000
   40        0.0000000000
   41       -0.0000000000
   42        0.0000000000
   43       -0.0000000000
   44       -0.0000000000
   45       -0.0000000000
   46       -0.0020160200
   47       -0.0348729700
   48       -0.0000000000
   49        0.0085008400
   50        0.1470471900
   51        0.0000000000
   52       -0.0203637900
   53       -0.3522520100
   54       -0.0000000000
   55        0.0401888000
   56        0.6951841200
   57        0.0000000000
   58        0.0000000000
   59        0.0000000000
   60        0.0149969600
   61        0.2594168600
   62       -0.0000000000
   63        0.0000000000
   64        0.0000000000
   65        0.0000000000
   66       -0.0103771100
   67       -0.1795028800
   68        0.0000000000
 Ene=         -0.09170380
 Spin= Alpha
 Occup=        0.00000000
    1       -0.3607440000
    2       -0.3773588800
    3        0.6943693800
    4       -1.1912307400
    5        0.5296996400
    6        0.7260975500
    7       -0.8708442100
    8        0.1333448000
    9       -0.0086772400
   10        0.0089611400
   11       -0.0395526800
   12        0.0000000000
   13        0.0000000000
   14       -0.0935978400
   15       -0.0000000000
   16        0.0000000000
   17        0.0305201900
   18       -0.0000000000
   19       -0.0000000000
   20       -0.0423377100
   21        0.0000000000
   22        0.0000000000
   23        0.0471203000
   24        0.0524052400
   25        0.0524052400
   26        0.0000000000
   27        0.0000000000
   28       -0.0000000000
   29        0.1737278500
   30        0.1827650000
   31        0.1827650000
   32       -0.0000000000
   33       -0.0000000000
   34       -0.0000000000
   35       -0.3607440000
   36       -0.3773588800
   37        0.6943693800
   38       -1.1912307400
   39        0.5296996400
   40        0.7260975500
   41       -0.8708442100
   42        0.1333448000
   43       -0.0086772400
   44        0.0089611400
   45        0.0395526800
   46       -0.0000000000
   47       -0.0000000000
   48        0.0935978400
   49        0.0000000000
   50       -0.0000000000
   51       -0.0305201900
   52        0.0000000000
   53        0.0000000000
   54        0.0423377100
   55       -0.0000000000
   56       -0.0000000000
   57        0.0471203000
   58        0.0524052400
   59        0.0524052400
   60       -0.0000000000
   61       -0.0000000000
   62        0.0000000000
   63        0.1737278500
   64        0.1827650000
   65        0.1827650000
   66        0.0000000000
   67        0.0000000000
   68        0.0000000000
 Ene=         -0.08324470
 Spin= Alpha
 Occup=        0.00000000
    1        0.4240959700
    2        0.6528290000
    3       -1.0885716100
    4        0.5438593200
    5        0.3948391200
    6       -0.0222210000
    7       -0.0778068700
    8        0.0074209900
    9        0.0012981300
   10        0.0007145100
   11        0.0478734900
   12       -0.0000000000
   13       -0.0000000000
   14        0.1448046800
   15       -0.0000000000
   16       -0.0000000000
   17        1.1192013700
   18       -0.0000000000
   19        0.0000000000
   20       -1.9242331400
   21        0.0000000000
   22       -0.0000000000
   23       -0.0796177800
   24       -0.0476892100
   25       -0.0476892100
   26        0.0000000000
   27       -0.0000000000
   28       -0.0000000000
   29       -0.1488055100
   30       -0.2847417000
   31       -0.2847417000
   32       -0.0000000000
   33        0.0000000000
   34        0.0000000000
   35        0.4240959700
   36        0.6528290000
   37       -1.0885716100
   38        0.5438593200
   39        0.3948391200
   40       -0.0222210000
   41       -0.0778068700
   42        0.0074209900
   43        0.0012981300
   44        0.0007145100
   45       -0.0478734900
   46        0.0000000000
   47        0.0000000000
   48       -0.1448046800
   49        0.0000000000
   50        0.0000000000
   51       -1.1192013700
   52        0.0000000000
   53       -0.0000000000
   54        1.9242331400
   55       -0.0000000000
   56        0.0000000000
   57       -0.0796177800
   58       -0.0476892100
   59       -0.0476892100
   60       -0.0000000000
   61        0.0000000000
   62        0.0000000000
   63       -0.1488055100
   64       -0.2847417000
   65       -0.2847417000
   66       -0.0000000000
   67       -0.0000000000
   68       -0.0000000000
 Ene=         -0.08173030
 Spin= Alpha
 Occup=        0.00000000
    1        0.0000000000
    2       -0.0000000000
    3       -0.0000000000
    4        0.0000000000
    5       -0.0000000000
    6       -0.0000000000
    7        0.0000000000
    8       -0.0000000000
    9        0.0000000000
   10       -0.0000000000
   11        0.0000000000
   12        0.0000781800
   13        0.0009018800
   14        0.0000000000
   15       -0.0002935700
   16       -0.0033863600
   17       -0.0000000000
   18        0.1229583000
   19        1.4183605800
   20        0.0000000000
   21       -0.2057712800
   22       -2.3736329300
   23        0.0000000000
   24       -0.0000000000
   25       -0.0000000000
   26       -0.0022773000
   27       -0.0262693000
   28        0.0000000000
   29        0.0000000000
   30        0.0000000000
   31        0.0000000000
   32        0.0072039000
   33        0.0830991000
   34       -0.0000000000
   35        0.0000000000
   36        0.0000000000
   37        0.0000000000
   38       -0.0000000000
   39        0.0000000000
   40        0.0000000000
   41       -0.0000000000
   42        0.0000000000
   43       -0.0000000000
   44        0.0000000000
   45        0.0000000000
   46       -0.0000781800
   47       -0.0009018800
   48        0.0000000000
   49        0.0002935700
   50        0.0033863600
   51       -0.0000000000
   52       -0.1229583000
   53       -1.4183605800
   54        0.0000000000
   55        0.2057712800
   56        2.3736329300
   57       -0.0000000000
   58        0.0000000000
   59        0.0000000000
   60       -0.0022773000
   61       -0.0262693000
   62       -0.0000000000
   63       -0.0000000000
   64       -0.0000000000
   65       -0.0000000000
   66        0.0072039000
   67        0.0830991000
   68        0.0000000000
 Ene=         -0.08173030
 Spin= Alpha
 Occup=        0.00000000
    1        0.0000000000
    2        0.0000000000
    3        0.0000000000
    4       -0.0000000000
    5        0.0000000000
    6        0.0000000000
    7       -0.0000000000
    8        0.0000000000
    9       -0.0000000000
   10        0.0000000000
   11       -0.0000000000
   12        0.0009018800
   13       -0.0000781800
   14       -0.0000000000
   15       -0.0033863600
   16        0.0002935700
   17        0.0000000000
   18        1.4183605800
   19       -0.1229583000
   20       -0.0000000000
   21       -2.3736329300
   22        0.2057712800
   23       -0.0000000000
   24       -0.0000000000
   25       -0.0000000000
   26       -0.0262693000
   27        0.0022773000
   28       -0.0000000000
   29       -0.0000000000
   30       -0.0000000000
   31       -0.0000000000
   32        0.0830991000
   33       -0.0072039000
   34        0.0000000000
   35       -0.0000000000
   36       -0.0000000000
   37       -0.0000000000
   38        0.0000000000
   39       -0.0000000000
   40       -0.0000000000
   41        0.0000000000
   42       -0.0000000000
   43        0.0000000000
   44       -0.0000000000
   45       -0.0000000000
   46       -0.0009018800
   47        0.0000781800
   48       -0.0000000000
   49        0.0033863600
   50       -0.0002935700
   51        0.0000000000
   52       -1.4183605800
   53        0.1229583000
   54       -0.0000000000
   55        2.3736329300
   56       -0.2057712800
   57        0.0000000000
   58        0.0000000000
   59        0.0000000000
   60       -0.0262693000
   61        0.0022773000
   62        0.0000000000
   63        0.0000000000
   64        0.0000000000
   65        0.0000000000
   66        0.0830991000
   67       -0.0072039000
   68       -0.0000000000
 Ene=         -0.07983180
 Spin= Alpha
 Occup=        0.00000000
    1        0.0039574100
    2       -0.0054235600
    3      -22.1962164800
    4        9.9169175500
    5       -0.6317112100
    6       -0.8800133800
    7        0.7798311300
    8       -0.1180754500
    9        0.0099259300
   10       -0.0073719300
   11       -0.0688025600
   12        0.0000000000
   13        0.0000000000
   14        0.0102162800
   15        0.0000000000
   16       -0.0000000000
   17       -3.2236944500
   18        0.0000000000
   19        0.0000000000
   20        1.9060734600
   21       -0.0000000000
   22        0.0000000000
   23       -0.1894646300
   24       -0.3044268000
   25       -0.3044268000
   26        0.0000000000
   27        0.0000000000
   28        0.0000000000
   29       -0.4634975100
   30       -0.2559200800
   31       -0.2559200800
   32        0.0000000000
   33       -0.0000000000
   34        0.0000000000
   35       -0.0039574100
   36        0.0054235600
   37       22.1962164800
   38       -9.9169175500
   39        0.6317112100
   40        0.8800133800
   41       -0.7798311300
   42        0.1180754500
   43       -0.0099259300
   44        0.0073719300
   45       -0.0688025600
   46       -0.0000000000
   47       -0.0000000000
   48        0.0102162800
   49       -0.0000000000
   50        0.0000000000
   51       -3.2236944500
   52       -0.0000000000
   53       -0.0000000000
   54        1.9060734600
   55        0.0000000000
   56       -0.0000000000
   57        0.1894646300
   58        0.3044268000
   59        0.3044268000
   60        0.0000000000
   61        0.0000000000
   62       -0.0000000000
   63        0.4634975100
   64        0.2559200800
   65        0.2559200800
   66        0.0000000000
   67       -0.0000000000
   68       -0.0000000000
 Ene=         -0.06320420
 Spin= Alpha
 Occup=        0.00000000
    1        0.0161961000
    2        0.0439230100
    3       28.7472371700
    4      -50.7097669900
    5        1.0686341100
    6       -0.1521408800
    7        0.0188933600
    8       -0.0068486900
    9        0.0022102200
   10       -0.0002242100
   11       -0.2980671200
   12       -0.0000000000
   13       -0.0000000000
   14       -0.2890055700
   15       -0.0000000000
   16        0.0000000000
   17        5.2928044100
   18        0.0000000000
   19       -0.0000000000
   20      -14.2500110300
   21        0.0000000000
   22        0.0000000000
   23       -1.1175119800
   24       -1.0143581400
   25       -1.0143581400
   26       -0.0000000000
   27       -0.0000000000
   28        0.0000000000
   29       -2.2034674300
   30       -2.3878610900
   31       -2.3878610900
   32       -0.0000000000
   33        0.0000000000
   34       -0.0000000000
   35       -0.0161961100
   36       -0.0439230100
   37      -28.7472371700
   38       50.7097669900
   39       -1.0686341100
   40        0.1521408800
   41       -0.0188933600
   42        0.0068486900
   43       -0.0022102200
   44        0.0002242100
   45       -0.2980671200
   46        0.0000000000
   47        0.0000000000
   48       -0.2890055700
   49        0.0000000000
   50       -0.0000000000
   51        5.2928044100
   52       -0.0000000000
   53        0.0000000000
   54      -14.2500110300
   55       -0.0000000000
   56       -0.0000000000
   57        1.1175119800
   58        1.0143581400
   59        1.0143581400
   60       -0.0000000000
   61       -0.0000000000
   62       -0.0000000000
   63        2.2034674300
   64        2.3878610900
   65        2.3878610900
   66       -0.0000000000
   67        0.0000000000
   68        0.0000000000
 Ene=         -0.06087880
 Spin= Alpha
 Occup=        0.00000000
    1       -0.4448682800
    2       -0.4722663200
    3        0.9425711000
    4        0.1070332700
    5       -1.4526719600
    6        1.8399572200
    7       -1.1487466400
    8        0.1659739300
    9       -0.0138383900
   10        0.0103982100
   11       -0.0484487300
   12        0.0000000000
   13        0.0000000000
   14       -0.1203296700
   15       -0.0000000000
   16       -0.0000000000
   17        0.2501241600
   18        0.0000000000
   19        0.0000000000
   20        0.1479347200
   21       -0.0000000000
   22        0.0000000000
   23        0.0534277400
   24        0.0665937400
   25        0.0665937400
   26        0.0000000000
   27        0.0000000000
   28       -0.0000000000
   29        0.2301415500
   30        0.2203695900
   31        0.2203695900
   32       -0.0000000000
   33       -0.0000000000
   34       -0.0000000000
   35       -0.4448682800
   36       -0.4722663200
   37        0.9425711200
   38        0.1070332600
   39       -1.4526719600
   40        1.8399572200
   41       -1.1487466400
   42        0.1659739300
   43       -0.0138383900
   44        0.0103982100
   45        0.0484487300
   46       -0.0000000000
   47       -0.0000000000
   48        0.1203296700
   49        0.0000000000
   50        0.0000000000
   51       -0.2501241600
   52       -0.0000000000
   53        0.0000000000
   54       -0.1479347200
   55        0.0000000000
   56       -0.0000000000
   57        0.0534277400
   58        0.0665937400
   59        0.0665937400
   60       -0.0000000000
   61       -0.0000000000
   62        0.0000000000
   63        0.2301415500
   64        0.2203695900
   65        0.2203695900
   66        0.0000000000
   67        0.0000000000
   68        0.0000000000
 Ene=         -0.05143170
 Spin= Alpha
 Occup=        0.00000000
    1        0.0138530200
    2        0.0003956900
    3      -52.1602291400
    4       -8.4897029800
    5        1.9492137900
    6       -1.7959210500
    7        1.0271224200
    8       -0.1501716600
    9        0.0154818700
   10       -0.0087395600
   11       -0.2441903000
   12        0.0000000000
   13        0.0000000000
   14       -0.0876798800
   15        0.0000000000
   16       -0.0000000000
   17       -7.1358575900
   18       -0.0000000000
   19        0.0000000000
   20       -2.4536695400
   21        0.0000000000
   22       -0.0000000000
   23       -0.7544362900
   24       -0.9785120700
   25       -0.9785120700
   26        0.0000000000
   27        0.0000000000
   28        0.0000000000
   29       -1.7715854500
   30       -1.3391881500
   31       -1.3391881500
   32        0.0000000000
   33       -0.0000000000
   34       -0.0000000000
   35       -0.0138530200
   36       -0.0003956900
   37       52.1602291400
   38        8.4897029800
   39       -1.9492137900
   40        1.7959210500
   41       -1.0271224200
   42        0.1501716600
   43       -0.0154818700
   44        0.0087395600
   45       -0.2441903000
   46       -0.0000000000
   47       -0.0000000000
   48       -0.0876798800
   49       -0.0000000000
   50        0.0000000000
   51       -7.1358575900
   52        0.0000000000
   53       -0.0000000000
   54       -2.4536695400
   55        0.0000000000
   56        0.0000000000
   57        0.7544362900
   58        0.9785120700
   59        0.9785120700
   60        0.0000000000
   61        0.0000000000
   62       -0.0000000000
   63        1.7715854500
   64        1.3391881500
   65        1.3391881500
   66        0.0000000000
   67       -0.0000000000
   68        0.0000000000
 Ene=         -0.04984060
 Spin= Alpha
 Occup=        0.00000000
    1       -0.0000000000
    2       -0.0000000000
    3       -0.0000000000
    4        0.0000000000
    5       -0.0000000000
    6        0.0000000000
    7       -0.0000000000
    8        0.0000000000
    9       -0.0000000000
   10        0.0000000000
   11        0.0000000000
   12       -0.0542993900
   13       -0.0302024900
   14        0.0000000000
   15        0.2500075200
   16        0.1390596000
   17       -0.0000000000
   18       -0.8065618800
   19       -0.4486271900
   20        0.0000000000
   21        0.3570812600
   22        0.1986163300
   23        0.0000000000
   24        0.0000000000
   25        0.0000000000
   26       -0.3730931400
   27       -0.2075224900
   28        0.0000000000
   29        0.0000000000
   30        0.0000000000
   31        0.0000000000
   32        0.2766235000
   33        0.1538639800
   34       -0.0000000000
   35       -0.0000000000
   36        0.0000000000
   37        0.0000000000
   38       -0.0000000000
   39        0.0000000000
   40       -0.0000000000
   41        0.0000000000
   42       -0.0000000000
   43        0.0000000000
   44       -0.0000000000
   45        0.0000000000
   46       -0.0542993900
   47       -0.0302024900
   48        0.0000000000
   49        0.2500075200
   50        0.1390596000
   51       -0.0000000000
   52       -0.8065618800
   53       -0.4486271900
   54        0.0000000000
   55        0.3570812600
   56        0.1986163300
   57       -0.0000000000
   58       -0.0000000000
   59       -0.0000000000
   60        0.3730931400
   61        0.2075224900
   62       -0.0000000000
   63       -0.0000000000
   64       -0.0000000000
   65       -0.0000000000
   66       -0.2766235000
   67       -0.1538639800
   68        0.0000000000
 Ene=         -0.04984060
 Spin= Alpha
 Occup=        0.00000000
    1       -0.0000000000
    2       -0.0000000000
    3       -0.0000000000
    4        0.0000000000
    5       -0.0000000000
    6        0.0000000000
    7       -0.0000000000
    8        0.0000000000
    9       -0.0000000000
   10        0.0000000000
   11        0.0000000000
   12        0.0302024900
   13       -0.0542993900
   14        0.0000000000
   15       -0.1390596000
   16        0.2500075200