[Molden Format]
[Atoms] AU
E+       1       1     0.00000000     0.00000000     0.00000000
E+       2       1    10.00000000     0.00000000     0.00000000
[GTO]
  1 0
s  1 1.00
   1.0000000000E-04   1.0000000000E+00
s  1 1.00
   3.0000000000E-04   1.0000000000E+00
s  1 1.00
   9.0000000000E-04   1.0000000000E+00
s  1 1.00
   2.7000000000E-03   1.0000000000E+00
s  1 1.00
   8.1000000000E-03   1.0000000000E+00
s  1 1.00
   2.4300000000E-02   1.0000000000E+00
s  1 1.00
   7.2900000000E-02   1.0000000000E+00
s  1 1.00
   2.1870000000E-01   1.0000000000E+00
s  1 1.00
   6.5610000000E-01   1.0000000000E+00
s  1 1.00
   1.9683000000E+00   1.0000000000E+00
p  1 1.00
   1.0000000000E-04   1.0000000000E+00
p  1 1.00
   3.0000000000E-04   1.0000000000E+00
p  1 1.00
   9.0000000000E-04   1.0000000000E+00
p  1 1.00
   2.7000000000E-03   1.0000000000E+00
d  1 1.00
   1.0000000000E-04   1.0000000000E+00
d  1 1.00
   3.0000000000E-04   1.0000000000E+00
 
  2 0
s  1 1.00
   1.0000000000E-04   1.0000000000E+00
s  1 1.00
   3.0000000000E-04   1.0000000000E+00
s  1 1.00
   9.0000000000E-04   1.0000000000E+00
s  1 1.00
   2.7000000000E-03   1.0000000000E+00
s  1 1.00
   8.1000000000E-03   1.0000000000E+00
s  1 1.00
   2.4300000000E-02   1.0000000000E+00
s  1 1.00
   7.2900000000E-02   1.0000000000E+00
s  1 1.00
   2.1870000000E-01   1.0000000000E+00
s  1 1.00
   6.5610000000E-01   1.0000000000E+00
s  1 1.00
   1.9683000000E+00   1.0000000000E+00
p  1 1.00
   1.0000000000E-04   1.0000000000E+00
p  1 1.00
   3.0000000000E-04   1.0000000000E+00
p  1 1.00
   9.0000000000E-04   1.0000000000E+00
p  1 1.00
   2.7000000000E-03   1.0000000000E+00
d  1 1.00
   1.0000000000E-04   1.0000000000E+00
d  1 1.00
   3.0000000000E-04   1.0000000000E+00
 
 
[MO]
Ene=    -2.78169E-01
Spin= Alpha
Occup=   1.0000000000
   1      -0.00890051
   2      -0.00266000
   3       0.00939672
   4      -0.03957400
   5       0.11817763
   6      -0.52361975
   7      -0.26533129
   8       0.05081706
   9       0.01533472
  10       0.00645033
  11      -0.00091471
  12      -0.00000000
  13      -0.00000000
  14      -0.00115886
  15       0.00000000
  16       0.00000000
  17       0.03673088
  18      -0.00000000
  19      -0.00000000
  20      -0.03247980
  21       0.00000000
  22       0.00000000
  23       0.00019391
  24       0.00184031
  25       0.00184031
  26       0.00000000
  27      -0.00000000
  28      -0.00000000
  29       0.00646563
  30       0.00205350
  31       0.00205350
  32      -0.00000000
  33       0.00000000
  34       0.00000000
  35      -0.00890051
  36      -0.00266000
  37       0.00939672
  38      -0.03957400
  39       0.11817763
  40      -0.52361975
  41      -0.26533129
  42       0.05081706
  43       0.01533472
  44       0.00645033
  45       0.00091471
  46       0.00000000
  47       0.00000000
  48       0.00115886
  49       0.00000000
  50      -0.00000000
  51      -0.03673088
  52       0.00000000
  53      -0.00000000
  54       0.03247980
  55       0.00000000
  56      -0.00000000
  57       0.00019391
  58       0.00184031
  59       0.00184031
  60      -0.00000000
  61       0.00000000
  62       0.00000000
  63       0.00646563
  64       0.00205350
  65       0.00205350
  66       0.00000000
  67      -0.00000000
  68      -0.00000000
Ene=    -2.51451E-01
Spin= Alpha
Occup=   0.0000000000
   1      -0.00019278
   2       0.00045011
   3       1.30035963
   4      -0.39358838
   5       0.10651594
   6      -0.49618827
   7      -0.42230948
   8       0.07699196
   9       0.01481214
  10       0.00842342
  11       0.00333878
  12      -0.00000000
  13      -0.00000000
  14      -0.00183092
  15      -0.00000000
  16       0.00000000
  17       0.19277756
  18       0.00000000
  19      -0.00000000
  20      -0.08636355
  21      -0.00000000
  22       0.00000000
  23       0.00811929
  24       0.01609052
  25       0.01609052
  26      -0.00000000
  27      -0.00000000
  28      -0.00000000
  29       0.02104666
  30       0.00745366
  31       0.00745366
  32      -0.00000000
  33       0.00000000
  34       0.00000000
  35       0.00019278
  36      -0.00045011
  37      -1.30035963
  38       0.39358838
  39      -0.10651594
  40       0.49618827
  41       0.42230948
  42      -0.07699196
  43      -0.01481214
  44      -0.00842342
  45       0.00333878
  46       0.00000000
  47       0.00000000
  48      -0.00183092
  49       0.00000000
  50      -0.00000000
  51       0.19277756
  52      -0.00000000
  53       0.00000000
  54      -0.08636355
  55       0.00000000
  56      -0.00000000
  57      -0.00811929
  58      -0.01609052
  59      -0.01609052
  60      -0.00000000
  61      -0.00000000
  62       0.00000000
  63      -0.02104666
  64      -0.00745366
  65      -0.00745366
  66      -0.00000000
  67       0.00000000
  68      -0.00000000
Ene=    -1.45413E-01
Spin= Alpha
Occup=   0.0000000000
   1      -0.17176747
   2      -0.18978723
   3       0.33026130
   4      -0.35125571
   5       0.97857708
   6      -0.31712234
   7      -0.55928396
   8       0.08623871
   9       0.00282130
  10       0.00721842
  11      -0.01901937
  12       0.00000000
  13       0.00000000
  14      -0.04542349
  15      -0.00000000
  16       0.00000000
  17      -0.09605690
  18      -0.00000000
  19      -0.00000000
  20       0.13314320
  21       0.00000000
  22       0.00000000
  23       0.02508592
  24       0.02362337
  25       0.02362337
  26      -0.00000000
  27       0.00000000
  28       0.00000000
  29       0.07557716
  30       0.09223092
  31       0.09223092
  32       0.00000000
  33      -0.00000000
  34      -0.00000000
  35      -0.17176747
  36      -0.18978723
  37       0.33026130
  38      -0.35125571
  39       0.97857708
  40      -0.31712234
  41      -0.55928396
  42       0.08623871
  43       0.00282130
  44       0.00721842
  45       0.01901937
  46      -0.00000000
  47      -0.00000000
  48       0.04542349
  49       0.00000000
  50      -0.00000000
  51       0.09605690
  52       0.00000000
  53       0.00000000
  54      -0.13314320
  55      -0.00000000
  56      -0.00000000
  57       0.02508592
  58       0.02362337
  59       0.02362337
  60       0.00000000
  61      -0.00000000
  62      -0.00000000
  63       0.07557716
  64       0.09223092
  65       0.09223092
  66      -0.00000000
  67       0.00000000
  68       0.00000000
Ene=    -1.32809E-01
Spin= Alpha
Occup=   0.0000000000
   1      -0.00132833
   2       0.00168912
   3       6.65920504
   4      -2.00518034
   5       1.50317560
   6       0.08775117
   7      -0.66676431
   8       0.10445445
   9      -0.00208743
  10       0.00773521
  11       0.02325086
  12      -0.00000000
  13      -0.00000000
  14      -0.00457114
  15      -0.00000000
  16       0.00000000
  17       0.96953279
  18       0.00000000
  19      -0.00000000
  20      -0.40669404
  21      -0.00000000
  22       0.00000000
  23       0.06450624
  24       0.10363724
  25       0.10363724
  26      -0.00000000
  27      -0.00000000
  28      -0.00000000
  29       0.15239306
  30       0.08426847
  31       0.08426847
  32      -0.00000000
  33       0.00000000
  34       0.00000000
  35       0.00132833
  36      -0.00168912
  37      -6.65920504
  38       2.00518034
  39      -1.50317560
  40      -0.08775117
  41       0.66676431
  42      -0.10445445
  43       0.00208743
  44      -0.00773521
  45       0.02325086
  46       0.00000000
  47       0.00000000
  48      -0.00457114
  49       0.00000000
  50      -0.00000000
  51       0.96953279
  52      -0.00000000
  53       0.00000000
  54      -0.40669404
  55       0.00000000
  56      -0.00000000
  57      -0.06450624
  58      -0.10363724
  59      -0.10363724
  60      -0.00000000
  61      -0.00000000
  62       0.00000000
  63      -0.15239306
  64      -0.08426847
  65      -0.08426847
  66      -0.00000000
  67       0.00000000
  68      -0.00000000
Ene=    -1.05664E-01
Spin= Alpha
Occup=   0.0000000000
   1      -0.00000000
   2       0.00000000
   3       0.00000000
   4      -0.00000000
   5       0.00000000
   6      -0.00000000
   7       0.00000000
   8      -0.00000000
   9       0.00000000
  10      -0.00000000
  11      -0.00000000
  12       0.03487297
  13      -0.00201602
  14      -0.00000000
  15      -0.14704719
  16       0.00850084
  17       0.00000000
  18       0.35225201
  19      -0.02036379
  20      -0.00000000
  21      -0.69518412
  22       0.04018880
  23      -0.00000000
  24      -0.00000000
  25       0.00000000
  26       0.25941686
  27      -0.01499696
  28      -0.00000000
  29      -0.00000000
  30      -0.00000000
  31      -0.00000000
  32      -0.17950288
  33       0.01037711
  34       0.00000000
  35      -0.00000000
  36      -0.00000000
  37      -0.00000000
  38       0.00000000
  39      -0.00000000
  40       0.00000000
  41      -0.00000000
  42       0.00000000
  43      -0.00000000
  44       0.00000000
  45      -0.00000000
  46       0.03487297
  47      -0.00201602
  48      -0.00000000
  49      -0.14704719
  50       0.00850084
  51       0.00000000
  52       0.35225201
  53      -0.02036379
  54      -0.00000000
  55      -0.69518412
  56       0.04018880
  57       0.00000000
  58       0.00000000
  59       0.00000000
  60      -0.25941686
  61       0.01499696
  62       0.00000000
  63       0.00000000
  64       0.00000000
  65       0.00000000
  66       0.17950288
  67      -0.01037711
  68      -0.00000000
Ene=    -1.05664E-01
Spin= Alpha
Occup=   0.0000000000
   1      -0.00000000
   2       0.00000000
   3       0.00000000
   4      -0.00000000
   5       0.00000000
   6      -0.00000000
   7       0.00000000
   8      -0.00000000
   9       0.00000000
  10      -0.00000000
  11      -0.00000000
  12      -0.00201602
  13      -0.03487297
  14      -0.00000000
  15       0.00850084
  16       0.14704719
  17       0.00000000
  18      -0.02036379
  19      -0.35225201
  20      -0.00000000
  21       0.04018880
  22       0.69518412
  23      -0.00000000
  24      -0.00000000
  25      -0.00000000
  26      -0.01499696
  27      -0.25941686
  28       0.00000000
  29      -0.00000000
  30      -0.00000000
  31      -0.00000000
  32       0.01037711
  33       0.17950288
  34      -0.00000000
  35      -0.00000000
  36      -0.00000000
  37      -0.00000000
  38       0.00000000
  39      -0.00000000
  40       0.00000000
  41      -0.00000000
  42       0.00000000
  43      -0.00000000
  44      -0.00000000
  45      -0.00000000
  46      -0.00201602
  47      -0.03487297
  48      -0.00000000
  49       0.00850084
  50       0.14704719
  51       0.00000000
  52      -0.02036379
  53      -0.35225201
  54      -0.00000000
  55       0.04018880
  56       0.69518412
  57       0.00000000
  58       0.00000000
  59       0.00000000
  60       0.01499696
  61       0.25941686
  62      -0.00000000
  63       0.00000000
  64       0.00000000
  65       0.00000000
  66      -0.01037711
  67      -0.17950288
  68       0.00000000
Ene=    -9.17038E-02
Spin= Alpha
Occup=   0.0000000000
   1      -0.36074400
   2      -0.37735888
   3       0.69436938
   4      -1.19123074
   5       0.52969964
   6       0.72609755
   7      -0.87084421
   8       0.13334480
   9      -0.00867724
  10       0.00896114
  11      -0.03955268
  12       0.00000000
  13       0.00000000
  14      -0.09359784
  15      -0.00000000
  16       0.00000000
  17       0.03052019
  18      -0.00000000
  19      -0.00000000
  20      -0.04233771
  21       0.00000000
  22       0.00000000
  23       0.04712030
  24       0.05240524
  25       0.05240524
  26       0.00000000
  27       0.00000000
  28      -0.00000000
  29       0.17372785
  30       0.18276500
  31       0.18276500
  32      -0.00000000
  33      -0.00000000
  34      -0.00000000
  35      -0.36074400
  36      -0.37735888
  37       0.69436938
  38      -1.19123074
  39       0.52969964
  40       0.72609755
  41      -0.87084421
  42       0.13334480
  43      -0.00867724
  44       0.00896114
  45       0.03955268
  46      -0.00000000
  47      -0.00000000
  48       0.09359784
  49       0.00000000
  50      -0.00000000
  51      -0.03052019
  52       0.00000000
  53       0.00000000
  54       0.04233771
  55      -0.00000000
  56      -0.00000000
  57       0.04712030
  58       0.05240524
  59       0.05240524
  60      -0.00000000
  61      -0.00000000
  62       0.00000000
  63       0.17372785
  64       0.18276500
  65       0.18276500
  66       0.00000000
  67       0.00000000
  68       0.00000000
Ene=    -8.32447E-02
Spin= Alpha
Occup=   0.0000000000
   1       0.42409597
   2       0.65282900
   3      -1.08857161
   4       0.54385932
   5       0.39483912
   6      -0.02222100
   7      -0.07780687
   8       0.00742099
   9       0.00129813
  10       0.00071451
  11       0.04787349
  12      -0.00000000
  13      -0.00000000
  14       0.14480468
  15      -0.00000000
  16      -0.00000000
  17       1.11920137
  18      -0.00000000
  19       0.00000000
  20      -1.92423314
  21       0.00000000
  22      -0.00000000
  23      -0.07961778
  24      -0.04768921
  25      -0.04768921
  26       0.00000000
  27      -0.00000000
  28      -0.00000000
  29      -0.14880551
  30      -0.28474170
  31      -0.28474170
  32      -0.00000000
  33       0.00000000
  34       0.00000000
  35       0.42409597
  36       0.65282900
  37      -1.08857161
  38       0.54385932
  39       0.39483912
  40      -0.02222100
  41      -0.07780687
  42       0.00742099
  43       0.00129813
  44       0.00071451
  45      -0.04787349
  46       0.00000000
  47       0.00000000
  48      -0.14480468
  49       0.00000000
  50       0.00000000
  51      -1.11920137
  52       0.00000000
  53      -0.00000000
  54       1.92423314
  55      -0.00000000
  56       0.00000000
  57      -0.07961778
  58      -0.04768921
  59      -0.04768921
  60      -0.00000000
  61       0.00000000
  62       0.00000000
  63      -0.14880551
  64      -0.28474170
  65      -0.28474170
  66      -0.00000000
  67      -0.00000000
  68      -0.00000000
Ene=    -8.17303E-02
Spin= Alpha
Occup=   0.0000000000
   1       0.00000000
   2      -0.00000000
   3      -0.00000000
   4       0.00000000
   5      -0.00000000
   6      -0.00000000
   7       0.00000000
   8      -0.00000000
   9       0.00000000
  10      -0.00000000
  11       0.00000000
  12       0.00007818
  13       0.00090188
  14       0.00000000
  15      -0.00029357
  16      -0.00338636
  17      -0.00000000
  18       0.12295830
  19       1.41836058
  20       0.00000000
  21      -0.20577128
  22      -2.37363293
  23       0.00000000
  24      -0.00000000
  25      -0.00000000
  26      -0.00227730
  27      -0.02626930
  28       0.00000000
  29       0.00000000
  30       0.00000000
  31       0.00000000
  32       0.00720390
  33       0.08309910
  34      -0.00000000
  35       0.00000000
  36       0.00000000
  37       0.00000000
  38      -0.00000000
  39       0.00000000
  40       0.00000000
  41      -0.00000000
  42       0.00000000
  43      -0.00000000
  44       0.00000000
  45       0.00000000
  46      -0.00007818
  47      -0.00090188
  48       0.00000000
  49       0.00029357
  50       0.00338636
  51      -0.00000000
  52      -0.12295830
  53      -1.41836058
  54       0.00000000
  55       0.20577128
  56       2.37363293
  57      -0.00000000
  58       0.00000000
  59       0.00000000
  60      -0.00227730
  61      -0.02626930
  62      -0.00000000
  63      -0.00000000
  64      -0.00000000
  65      -0.00000000
  66       0.00720390
  67       0.08309910
  68       0.00000000
Ene=    -8.17303E-02
Spin= Alpha
Occup=   0.0000000000
   1       0.00000000
   2       0.00000000
   3       0.00000000
   4      -0.00000000
   5       0.00000000
   6       0.00000000
   7      -0.00000000
   8       0.00000000
   9      -0.00000000
  10       0.00000000
  11      -0.00000000
  12       0.00090188
  13      -0.00007818
  14      -0.00000000
  15      -0.00338636
  16       0.00029357
  17       0.00000000
  18       1.41836058
  19      -0.12295830
  20      -0.00000000
  21      -2.37363293
  22       0.20577128
  23      -0.00000000
  24      -0.00000000
  25      -0.00000000
  26      -0.02626930
  27       0.00227730
  28      -0.00000000
  29      -0.00000000
  30      -0.00000000
  31      -0.00000000
  32       0.08309910
  33      -0.00720390
  34       0.00000000
  35      -0.00000000
  36      -0.00000000
  37      -0.00000000
  38       0.00000000
  39      -0.00000000
  40      -0.00000000
  41       0.00000000
  42      -0.00000000
  43       0.00000000
  44      -0.00000000
  45      -0.00000000
  46      -0.00090188
  47       0.00007818
  48      -0.00000000
  49       0.00338636
  50      -0.00029357
  51       0.00000000
  52      -1.41836058
  53       0.12295830
  54      -0.00000000
  55       2.37363293
  56      -0.20577128
  57       0.00000000
  58       0.00000000
  59       0.00000000
  60      -0.02626930
  61       0.00227730
  62       0.00000000
  63       0.00000000
  64       0.00000000
  65       0.00000000
  66       0.08309910
  67      -0.00720390
  68      -0.00000000
Ene=    -7.98318E-02
Spin= Alpha
Occup=   0.0000000000
   1       0.00395741
   2      -0.00542356
   3     -22.19621648
   4       9.91691755
   5      -0.63171121
   6      -0.88001338
   7       0.77983113
   8      -0.11807545
   9       0.00992593
  10      -0.00737193
  11      -0.06880256
  12       0.00000000
  13       0.00000000
  14       0.01021628
  15       0.00000000
  16      -0.00000000
  17      -3.22369445
  18       0.00000000
  19       0.00000000
  20       1.90607346
  21      -0.00000000
  22       0.00000000
  23      -0.18946463
  24      -0.30442680
  25      -0.30442680
  26       0.00000000
  27       0.00000000
  28       0.00000000
  29      -0.46349751
  30      -0.25592008
  31      -0.25592008
  32       0.00000000
  33      -0.00000000
  34       0.00000000
  35      -0.00395741
  36       0.00542356
  37      22.19621648
  38      -9.91691755
  39       0.63171121
  40       0.88001338
  41      -0.77983113
  42       0.11807545
  43      -0.00992593
  44       0.00737193
  45      -0.06880256
  46      -0.00000000
  47      -0.00000000
  48       0.01021628
  49      -0.00000000
  50       0.00000000
  51      -3.22369445
  52      -0.00000000
  53      -0.00000000
  54       1.90607346
  55       0.00000000
  56      -0.00000000
  57       0.18946463
  58       0.30442680
  59       0.30442680
  60       0.00000000
  61       0.00000000
  62      -0.00000000
  63       0.46349751
  64       0.25592008
  65       0.25592008
  66       0.00000000
  67      -0.00000000
  68      -0.00000000
Ene=    -6.32042E-02
Spin= Alpha
Occup=   0.0000000000
   1       0.01619610
   2       0.04392301
   3      28.74723717
   4     -50.70976699
   5       1.06863411
   6      -0.15214088
   7       0.01889336
   8      -0.00684869
   9       0.00221022
  10      -0.00022421
  11      -0.29806712
  12      -0.00000000
  13      -0.00000000
  14      -0.28900557
  15      -0.00000000
  16       0.00000000
  17       5.29280441
  18       0.00000000
  19      -0.00000000
  20     -14.25001103
  21       0.00000000
  22       0.00000000
  23      -1.11751198
  24      -1.01435814
  25      -1.01435814
  26      -0.00000000
  27      -0.00000000
  28       0.00000000
  29      -2.20346743
  30      -2.38786109
  31      -2.38786109
  32      -0.00000000
  33       0.00000000
  34      -0.00000000
  35      -0.01619611
  36      -0.04392301
  37     -28.74723717
  38      50.70976699
  39      -1.06863411
  40       0.15214088
  41      -0.01889336
  42       0.00684869
  43      -0.00221022
  44       0.00022421
  45      -0.29806712
  46       0.00000000
  47       0.00000000
  48      -0.28900557
  49       0.00000000
  50      -0.00000000
  51       5.29280441
  52      -0.00000000
  53       0.00000000
  54     -14.25001103
  55      -0.00000000
  56      -0.00000000
  57       1.11751198
  58       1.01435814
  59       1.01435814
  60      -0.00000000
  61      -0.00000000
  62      -0.00000000
  63       2.20346743
  64       2.38786109
  65       2.38786109
  66      -0.00000000
  67       0.00000000
  68       0.00000000
Ene=    -6.08788E-02
Spin= Alpha
Occup=   0.0000000000
   1      -0.44486828
   2      -0.47226632
   3       0.94257110
   4       0.10703327
   5      -1.45267196
   6       1.83995722
   7      -1.14874664
   8       0.16597393
   9      -0.01383839
  10       0.01039821
  11      -0.04844873
  12       0.00000000
  13       0.00000000
  14      -0.12032967
  15      -0.00000000
  16      -0.00000000
  17       0.25012416
  18       0.00000000
  19       0.00000000
  20       0.14793472
  21      -0.00000000
  22       0.00000000
  23       0.05342774
  24       0.06659374
  25       0.06659374
  26       0.00000000
  27       0.00000000
  28      -0.00000000
  29       0.23014155
  30       0.22036959
  31       0.22036959
  32      -0.00000000
  33      -0.00000000
  34      -0.00000000
  35      -0.44486828
  36      -0.47226632
  37       0.94257112
  38       0.10703326
  39      -1.45267196
  40       1.83995722
  41      -1.14874664
  42       0.16597393
  43      -0.01383839
  44       0.01039821
  45       0.04844873
  46      -0.00000000
  47      -0.00000000
  48       0.12032967
  49       0.00000000
  50       0.00000000
  51      -0.25012416
  52      -0.00000000
  53       0.00000000
  54      -0.14793472
  55       0.00000000
  56      -0.00000000
  57       0.05342774
  58       0.06659374
  59       0.06659374
  60      -0.00000000
  61      -0.00000000
  62       0.00000000
  63       0.23014155
  64       0.22036959
  65       0.22036959
  66       0.00000000
  67       0.00000000
  68       0.00000000
Ene=    -5.14317E-02
Spin= Alpha
Occup=   0.0000000000
   1       0.01385302
   2       0.00039569
   3     -52.16022914
   4      -8.48970298
   5       1.94921379
   6      -1.79592105
   7       1.02712242
   8      -0.15017166
   9       0.01548187
  10      -0.00873956
  11      -0.24419030
  12       0.00000000
  13       0.00000000
  14      -0.08767988
  15       0.00000000
  16      -0.00000000
  17      -7.13585759
  18      -0.00000000
  19       0.00000000
  20      -2.45366954
  21       0.00000000
  22      -0.00000000
  23      -0.75443629
  24      -0.97851207
  25      -0.97851207
  26       0.00000000
  27       0.00000000
  28       0.00000000
  29      -1.77158545
  30      -1.33918815
  31      -1.33918815
  32       0.00000000
  33      -0.00000000
  34      -0.00000000
  35      -0.01385302
  36      -0.00039569
  37      52.16022914
  38       8.48970298
  39      -1.94921379
  40       1.79592105
  41      -1.02712242
  42       0.15017166
  43      -0.01548187
  44       0.00873956
  45      -0.24419030
  46      -0.00000000
  47      -0.00000000
  48      -0.08767988
  49      -0.00000000
  50       0.00000000
  51      -7.13585759
  52       0.00000000
  53      -0.00000000
  54      -2.45366954
  55       0.00000000
  56       0.00000000
  57       0.75443629
  58       0.97851207
  59       0.97851207
  60       0.00000000
  61       0.00000000
  62      -0.00000000
  63       1.77158545
  64       1.33918815
  65       1.33918815
  66       0.00000000
  67      -0.00000000
  68       0.00000000
Ene=    -4.98406E-02
Spin= Alpha
Occup=   0.0000000000
   1      -0.00000000
   2      -0.00000000
   3      -0.00000000
   4       0.00000000
   5      -0.00000000
   6       0.00000000
   7      -0.00000000
   8       0.00000000
   9      -0.00000000
  10       0.00000000
  11       0.00000000
  12      -0.05429939
  13      -0.03020249
  14       0.00000000
  15       0.25000752
  16       0.13905960
  17      -0.00000000
  18      -0.80656188
  19      -0.44862719
  20       0.00000000
  21       0.35708126
  22       0.19861633
  23       0.00000000
  24       0.00000000
  25       0.00000000
  26      -0.37309314
  27      -0.20752249
  28       0.00000000
  29       0.00000000
  30       0.00000000
  31       0.00000000
  32       0.27662350
  33       0.15386398
  34      -0.00000000
  35      -0.00000000
  36       0.00000000
  37       0.00000000
  38      -0.00000000
  39       0.00000000
  40      -0.00000000
  41       0.00000000
  42      -0.00000000
  43       0.00000000
  44      -0.00000000
  45       0.00000000
  46      -0.05429939
  47      -0.03020249
  48       0.00000000
  49       0.25000752
  50       0.13905960
  51      -0.00000000
  52      -0.80656188
  53      -0.44862719
  54       0.00000000
  55       0.35708126
  56       0.19861633
  57      -0.00000000
  58      -0.00000000
  59      -0.00000000
  60       0.37309314
  61       0.20752249
  62      -0.00000000
  63      -0.00000000
  64      -0.00000000
  65      -0.00000000
  66      -0.27662350
  67      -0.15386398
  68       0.00000000
Ene=    -4.98406E-02
Spin= Alpha
Occup=   0.0000000000
   1      -0.00000000
   2      -0.00000000
   3      -0.00000000
   4       0.00000000
   5      -0.00000000
   6       0.00000000
   7      -0.00000000
   8       0.00000000
   9      -0.00000000
  10       0.00000000
  11       0.00000000
  12       0.03020249
  13      -0.05429939
  14       0.00000000
  15      -0.13905960
  16       0.25000752
  17      -0.00000000
  18       0.44862719
  19      -0.80656188
  20       0.00000000
  21      -0.19861633
  22       0.35708126
  23       0.00000000
  24       0.00000000
  25       0.00000000
  26       0.20752249
  27      -0.37309314
  28       0.00000000
  29       0.00000000
  30       0.00000000
  31       0.00000000
  32      -0.15386398
  33       0.27662350
  34      -0.00000000
  35       0.00000000
  36       0.00000000
  37       0.00000000
  38      -0.00000000
  39       0.00000000
  40      -0.00000000
  41       0.00000000
  42      -0.00000000
  43       0.00000000
  44      -0.00000000
  45       0.00000000
  46       0.03020249
  47      -0.05429939
  48       0.00000000
  49      -0.13905960
  50       0.25000752
  51      -0.00000000
  52       0.44862719
  53      -0.80656188
  54       0.00000000
  55      -0.19861633
  56       0.35708126
  57      -0.00000000
  58      -0.00000000
  59      -0.00000000
  60      -0.20752249
  61       0.37309314
  62      -0.00000000
  63      -0.00000000
  64      -0.00000000
  65      -0.00000000
  66       0.15386398
  67      -0.27662350
  68       0.00000000
Ene=    -4.51184E-02
Spin= Alpha
Occup=   0.0000000000
   1       0.45905737
   2       0.78421832
   3      -2.07344165
   4       2.36713493
   5      -2.23844838
   6       1.80792934
   7      -0.94517254
   8       0.12759992
   9      -0.00988940
  10       0.00793293
  11       0.05016681
  12      -0.00000000
  13      -0.00000000
  14       0.17493858
  15       0.00000000
  16      -0.00000000
  17       0.24165061
  18       0.00000000
  19       0.00000000
  20      -0.04684352
  21      -0.00000000
  22      -0.00000000
  23      -0.06392372
  24      -0.06133271
  25      -0.06133271
  26       0.00000000
  27      -0.00000000
  28       0.00000000
  29      -0.23932354
  30      -0.28909432
  31      -0.28909432
  32      -0.00000000
  33       0.00000000
  34      -0.00000000
  35       0.45905737
  36       0.78421832
  37      -2.07344168
  38       2.36713493
  39      -2.23844838
  40       1.80792934
  41      -0.94517254
  42       0.12759992
  43      -0.00988940
  44       0.00793293
  45      -0.05016681
  46       0.00000000
  47       0.00000000
  48      -0.17493858
  49      -0.00000000
  50       0.00000000
  51      -0.24165061
  52      -0.00000000
  53      -0.00000000
  54       0.04684352
  55       0.00000000
  56       0.00000000
  57      -0.06392372
  58      -0.06133271
  59      -0.06133271
  60      -0.00000000
  61       0.00000000
  62      -0.00000000
  63      -0.23932354
  64      -0.28909432
  65      -0.28909432
  66       0.00000000
  67       0.00000000
  68       0.00000000
Ene=    -4.22527E-02
Spin= Alpha
Occup=   0.0000000000
   1       0.48762222
   2       1.07334359
   3      -1.32264420
   4      -0.43448468
   5       0.74300055
   6      -0.49227933
   7       0.23692803
   8      -0.03283954
   9       0.00296731
  10      -0.00198493
  11       0.05571021
  12      -0.00000000
  13      -0.00000000
  14       0.22600765
  15      -0.00000000
  16       0.00000000
  17       4.07819217
  18      -0.00000000
  19       0.00000000
  20      -0.91951982
  21       0.00000000
  22      -0.00000000
  23      -0.11161729
  24      -0.04223840
  25      -0.04223840
  26      -0.00000000
  27      -0.00000000
  28      -0.00000000
  29      -0.11636332
  30      -0.41675709
  31      -0.41675709
  32      -0.00000000
  33       0.00000000
  34       0.00000000
  35       0.48762222
  36       1.07334359
  37      -1.32264420
  38      -0.43448468
  39       0.74300055
  40      -0.49227933
  41       0.23692803
  42      -0.03283954
  43       0.00296731
  44      -0.00198493
  45      -0.05571021
  46       0.00000000
  47       0.00000000
  48      -0.22600765
  49       0.00000000
  50       0.00000000
  51      -4.07819217
  52       0.00000000
  53      -0.00000000
  54       0.91951982
  55      -0.00000000
  56       0.00000000
  57      -0.11161729
  58      -0.04223840
  59      -0.04223840
  60       0.00000000
  61      -0.00000000
  62       0.00000000
  63      -0.11636332
  64      -0.41675709
  65      -0.41675709
  66      -0.00000000
  67       0.00000000
  68      -0.00000000
Ene=    -4.20781E-02
Spin= Alpha
Occup=   0.0000000000
   1      -0.00000000
   2       0.00000000
   3       0.00000000
   4      -0.00000000
   5       0.00000000
   6      -0.00000000
   7       0.00000000
   8      -0.00000000
   9       0.00000000
  10      -0.00000000
  11      -0.00000000
  12      -0.00115081