 Molden2AIM, Version 3.1.0 (02/25/2015)           Time: Thu Oct 17 19:11:52 2024
GAUSSIAN             34 MOL ORBITALS     34 PRIMITIVES        1 NUCLEI
  H    1    (CENTRE  1)   0.00000000  0.00000000  0.00000000  CHARGE =  1.0
CENTRE ASSIGNMENTS    1  1  1  1  1  1  1  1  1  1  1  1  1  1  1  1  1  1  1  1
CENTRE ASSIGNMENTS    1  1  1  1  1  1  1  1  1  1  1  1  1  1
TYPE ASSIGNMENTS      1  1  1  1  1  1  1  1  1  1  2  3  4  2  3  4  2  3  4  2
TYPE ASSIGNMENTS      3  4  5  6  7  8  9 10  5  6  7  8  9 10
EXPONENTS  0.1000000D-03 0.3000000D-03 0.9000000D-03 0.2700000D-02 0.8100000D-02
EXPONENTS  0.2430000D-01 0.7290000D-01 0.2187000D+00 0.6561000D+00 0.1968300D+01
EXPONENTS  0.1000000D-03 0.1000000D-03 0.1000000D-03 0.3000000D-03 0.3000000D-03
EXPONENTS  0.3000000D-03 0.9000000D-03 0.9000000D-03 0.9000000D-03 0.2700000D-02
EXPONENTS  0.2700000D-02 0.2700000D-02 0.1000000D-03 0.1000000D-03 0.1000000D-03
EXPONENTS  0.1000000D-03 0.1000000D-03 0.1000000D-03 0.3000000D-03 0.3000000D-03
EXPONENTS  0.3000000D-03 0.3000000D-03 0.3000000D-03 0.3000000D-03
MO    1     MO 0.0        OCC NO =    1.0000000  ORB. ENERGY =   -0.267685
 -0.46067201D-04 -0.95252879D-04  0.36182501D-03 -0.87888286D-03  0.31876872D-02
 -0.35789005D-01 -0.39513339D-01  0.26976188D-01  0.18017849D-02  0.14595772D-01
  0.12684418D-06 -0.00000000D+00 -0.00000000D+00 -0.14681242D-05  0.00000000D+00
 -0.00000000D+00  0.11165538D-04 -0.00000000D+00 -0.00000000D+00 -0.57443891D-04
  0.00000000D+00  0.00000000D+00  0.15632152D-08  0.15203553D-08  0.15203553D-08
 -0.00000000D+00  0.00000000D+00 -0.00000000D+00  0.34194535D-07  0.34782948D-07
  0.34782948D-07  0.00000000D+00  0.00000000D+00  0.00000000D+00
MO    2     MO 0.0        OCC NO =    0.0000000  ORB. ENERGY =   -0.131887
 -0.17791446D-03 -0.36651459D-03  0.13954057D-02 -0.34639677D-02  0.19405346D-01
  0.20866685D-01 -0.13498864D+00  0.57707519D-01 -0.10861886D-01  0.20649971D-01
 -0.69051909D-06  0.00000000D+00  0.00000000D+00  0.80156932D-05 -0.00000000D+00
 -0.00000000D+00 -0.61916534D-04  0.00000000D+00  0.00000000D+00  0.34272537D-03
 -0.00000000D+00 -0.00000000D+00  0.55959860D-08  0.60974559D-08  0.60974559D-08
 -0.00000000D+00 -0.00000000D+00  0.00000000D+00  0.13796886D-06  0.13107374D-06
  0.13107374D-06 -0.00000000D+00  0.00000000D+00 -0.00000000D+00
MO    3     MO 0.0        OCC NO =    0.0000000  ORB. ENERGY =   -0.058291
  0.13205477D-03  0.26607388D-03 -0.10125124D-02  0.26016159D-02  0.16480532D-01
 -0.86948775D-01  0.14871340D+00 -0.48252898D-01  0.77460295D-02 -0.16039940D-01
 -0.16047433D-05  0.00000000D+00 -0.00000000D+00  0.18640915D-04 -0.00000000D+00
  0.00000000D+00 -0.14615578D-03  0.00000000D+00  0.00000000D+00  0.89755232D-03
 -0.00000000D+00 -0.00000000D+00 -0.58585963D-08 -0.36877575D-08 -0.36877575D-08
  0.00000000D+00  0.00000000D+00  0.00000000D+00 -0.78267087D-07 -0.10820480D-06
 -0.10820480D-06 -0.00000000D+00  0.00000000D+00 -0.00000000D+00
MO    4     MO 0.0        OCC NO =    0.0000000  ORB. ENERGY =   -0.023909
  0.00000000D+00 -0.00000000D+00  0.00000000D+00 -0.00000000D+00  0.00000000D+00
 -0.00000000D+00  0.00000000D+00 -0.00000000D+00  0.00000000D+00 -0.00000000D+00
  0.00000000D+00 -0.24090763D-05 -0.59437384D-06 -0.00000000D+00  0.27493699D-04
  0.67833198D-05  0.00000000D+00 -0.20778330D-03 -0.51264857D-04 -0.00000000D+00
  0.12238099D-02  0.30194168D-03 -0.00000000D+00 -0.00000000D+00 -0.00000000D+00
 -0.25122098D-08 -0.61981999D-09 -0.00000000D+00 -0.00000000D+00 -0.00000000D+00
 -0.00000000D+00  0.34594559D-07  0.85352641D-08  0.00000000D+00
MO    5     MO 0.0        OCC NO =    0.0000000  ORB. ENERGY =   -0.023909
 -0.00000000D+00 -0.00000000D+00  0.00000000D+00 -0.00000000D+00  0.00000000D+00
 -0.00000000D+00  0.00000000D+00 -0.00000000D+00  0.00000000D+00 -0.00000000D+00
 -0.00000000D+00  0.59437384D-06 -0.24090763D-05  0.00000000D+00 -0.67833198D-05
  0.27493699D-04 -0.00000000D+00  0.51264857D-04 -0.20778330D-03 -0.00000000D+00
 -0.30194168D-03  0.12238099D-02 -0.00000000D+00  0.00000000D+00 -0.00000000D+00
  0.61981999D-09 -0.25122098D-08 -0.00000000D+00  0.00000000D+00  0.00000000D+00
  0.00000000D+00 -0.85352641D-08  0.34594559D-07  0.00000000D+00
MO    6     MO 0.0        OCC NO =    0.0000000  ORB. ENERGY =   -0.016128
  0.17592677D-03  0.33268405D-03 -0.12716193D-02  0.22555279D-02 -0.33361884D-01
  0.96102525D-01 -0.12156382D+00  0.29829778D-01 -0.12057742D-02  0.10361013D-01
 -0.14435591D-05  0.00000000D+00  0.00000000D+00  0.16323499D-04 -0.00000000D+00
  0.00000000D+00 -0.12173794D-03  0.00000000D+00 -0.00000000D+00  0.78405748D-03
  0.00000000D+00  0.00000000D+00 -0.71840678D-08 -0.52869723D-08 -0.52869723D-08
  0.00000000D+00 -0.00000000D+00  0.00000000D+00 -0.11038621D-06 -0.13668897D-06
 -0.13668897D-06 -0.00000000D+00  0.00000000D+00 -0.00000000D+00
MO    7     MO 0.0        OCC NO =    0.0000000  ORB. ENERGY =    0.000066
 -0.10841753D-02  0.11417084D-02  0.41132641D-03  0.49884292D-03 -0.43553017D-02
  0.87700985D-02 -0.97503562D-02  0.21157482D-02  0.48069903D-04  0.75685625D-03
  0.15689152D-05  0.00000000D+00 -0.00000000D+00 -0.38656573D-05 -0.00000000D+00
  0.00000000D+00  0.32387015D-04  0.00000000D+00 -0.00000000D+00 -0.49821897D-04
 -0.00000000D+00  0.00000000D+00  0.10899969D-06  0.11357637D-06  0.11357637D-06
  0.00000000D+00 -0.00000000D+00  0.00000000D+00  0.36063386D-06  0.29645574D-06
  0.29645574D-06  0.00000000D+00 -0.00000000D+00 -0.00000000D+00
MO    8     MO 0.0        OCC NO =    0.0000000  ORB. ENERGY =    0.000208
 -0.13528945D-02  0.57399675D-03  0.64594616D-03 -0.11289531D-02  0.46571293D-02
 -0.86084774D-02  0.94249654D-02 -0.20781926D-02 -0.15986932D-04 -0.73575120D-03
 -0.15674646D-04  0.00000000D+00  0.00000000D+00  0.19640088D-04  0.00000000D+00
 -0.00000000D+00 -0.53899706D-04 -0.00000000D+00  0.00000000D+00  0.83402542D-04
  0.00000000D+00 -0.00000000D+00  0.85773478D-07  0.80002646D-07  0.80002646D-07
 -0.00000000D+00  0.00000000D+00  0.00000000D+00  0.27015558D-06  0.35141290D-06
  0.35141290D-06  0.00000000D+00  0.00000000D+00  0.00000000D+00
MO    9     MO 0.0        OCC NO =    0.0000000  ORB. ENERGY =    0.000225
 -0.00000000D+00  0.00000000D+00  0.00000000D+00 -0.00000000D+00  0.00000000D+00
 -0.00000000D+00  0.00000000D+00 -0.00000000D+00  0.00000000D+00 -0.00000000D+00
  0.00000000D+00  0.17015804D-04 -0.62973159D-06  0.00000000D+00 -0.19100685D-04
  0.70689033D-06 -0.00000000D+00  0.21398406D-04 -0.79192595D-06 -0.00000000D+00
 -0.29947046D-04  0.11083021D-05 -0.00000000D+00  0.00000000D+00  0.00000000D+00
 -0.35016075D-09  0.12959836D-10  0.00000000D+00  0.00000000D+00 -0.00000000D+00
 -0.00000000D+00  0.50652184D-08 -0.18744833D-09  0.00000000D+00
MO   10     MO 0.0        OCC NO =    0.0000000  ORB. ENERGY =    0.000225
  0.00000000D+00 -0.00000000D+00 -0.00000000D+00  0.00000000D+00 -0.00000000D+00
  0.00000000D+00 -0.00000000D+00  0.00000000D+00 -0.00000000D+00  0.00000000D+00
  0.00000000D+00  0.62973159D-06  0.17015804D-04 -0.00000000D+00 -0.70689033D-06
 -0.19100685D-04  0.00000000D+00  0.79192595D-06  0.21398406D-04 -0.00000000D+00
 -0.11083021D-05 -0.29947046D-04 -0.00000000D+00 -0.00000000D+00 -0.00000000D+00
 -0.12959836D-10 -0.35016075D-09  0.00000000D+00 -0.00000000D+00 -0.00000000D+00
 -0.00000000D+00  0.18744833D-09  0.50652184D-08 -0.00000000D+00
MO   11     MO 0.0        OCC NO =    0.0000000  ORB. ENERGY =    0.000289
  0.40545336D-02 -0.20706381D-02 -0.19034755D-02  0.18782361D-02 -0.77022127D-02
  0.14626199D-01 -0.16050602D-01  0.35349705D-02  0.28690230D-04  0.12519484D-02
 -0.63296248D-05  0.00000000D+00 -0.00000000D+00  0.47681370D-05 -0.00000000D+00
  0.00000000D+00  0.41893008D-04 -0.00000000D+00 -0.00000000D+00 -0.67836307D-04
  0.00000000D+00  0.00000000D+00 -0.22575955D-06 -0.21725310D-06 -0.21725310D-06
  0.00000000D+00 -0.00000000D+00 -0.00000000D+00 -0.82184747D-06 -0.94214807D-06
 -0.94214807D-06 -0.00000000D+00 -0.00000000D+00 -0.00000000D+00
MO   12     MO 0.0        OCC NO =    0.0000000  ORB. ENERGY =    0.000331
  0.26839847D-05 -0.10784209D-05 -0.24571940D-05  0.32403689D-05 -0.82437216D-05
  0.15482910D-04 -0.17534213D-04  0.36468396D-05  0.23380303D-06  0.13383109D-05
  0.22746708D-08 -0.00000000D+00  0.00000000D+00 -0.14697664D-07  0.00000000D+00
 -0.00000000D+00  0.38011681D-07 -0.00000000D+00  0.00000000D+00 -0.16354501D-06
  0.00000000D+00 -0.00000000D+00 -0.18087992D-06  0.90241456D-07  0.90241463D-07
  0.00000000D+00 -0.00000000D+00 -0.00000000D+00  0.20118011D-06 -0.10164680D-06
 -0.10164681D-06 -0.00000000D+00  0.00000000D+00  0.00000000D+00
MO   13     MO 0.0        OCC NO =    0.0000000  ORB. ENERGY =    0.000331
 -0.00000000D+00  0.00000000D+00  0.00000000D+00 -0.00000000D+00  0.00000000D+00
 -0.00000000D+00  0.00000000D+00 -0.00000000D+00 -0.00000000D+00 -0.00000000D+00
 -0.00000000D+00 -0.20725475D-08  0.51229269D-09  0.00000000D+00  0.11796513D-07
 -0.29157833D-08 -0.00000000D+00 -0.27872715D-07  0.68904088D-08  0.00000000D+00
  0.14782391D-06 -0.36539264D-07  0.00000000D+00 -0.00000000D+00  0.00000000D+00
  0.30391635D-06 -0.75126152D-07 -0.00000000D+00 -0.00000000D+00  0.00000000D+00
 -0.00000000D+00 -0.33945685D-06  0.83911541D-07  0.00000000D+00
MO   14     MO 0.0        OCC NO =    0.0000000  ORB. ENERGY =    0.000331
  0.00000000D+00 -0.00000000D+00 -0.00000000D+00  0.00000000D+00 -0.00000000D+00
  0.00000000D+00 -0.00000000D+00  0.00000000D+00  0.00000000D+00  0.00000000D+00
  0.00000000D+00 -0.51229269D-09 -0.20725475D-08 -0.00000000D+00  0.29157833D-08
  0.11796513D-07  0.00000000D+00 -0.68904088D-08 -0.27872715D-07 -0.00000000D+00
  0.36539264D-07  0.14782391D-06 -0.00000000D+00  0.00000000D+00 -0.00000000D+00
  0.75126152D-07  0.30391635D-06  0.28508219D-14  0.00000000D+00 -0.00000000D+00
  0.00000000D+00 -0.83911541D-07 -0.33945685D-06 -0.00000000D+00
MO   15     MO 0.0        OCC NO =    0.0000000  ORB. ENERGY =    0.000331
  0.00000000D+00 -0.00000000D+00 -0.00000000D+00  0.00000000D+00 -0.00000000D+00
  0.00000000D+00 -0.00000000D+00  0.00000000D+00  0.00000000D+00  0.00000000D+00
  0.00000000D+00 -0.00000000D+00  0.00000000D+00 -0.00000000D+00  0.00000000D+00
 -0.00000000D+00  0.00000000D+00 -0.00000000D+00  0.00000000D+00 -0.00000000D+00
  0.00000000D+00 -0.00000000D+00 -0.32918456D-14  0.15296148D-06 -0.15296148D-06
  0.00000000D+00 -0.00000000D+00 -0.66466162D-07  0.00000000D+00 -0.17082416D-06
  0.17082416D-06 -0.00000000D+00  0.00000000D+00  0.74228017D-07
MO   16     MO 0.0        OCC NO =    0.0000000  ORB. ENERGY =    0.000331
 -0.00000000D+00  0.00000000D+00  0.00000000D+00 -0.00000000D+00  0.00000000D+00
 -0.00000000D+00  0.00000000D+00 -0.00000000D+00 -0.00000000D+00 -0.00000000D+00
 -0.00000000D+00  0.00000000D+00 -0.00000000D+00  0.00000000D+00 -0.00000000D+00
  0.00000000D+00 -0.00000000D+00  0.00000000D+00 -0.00000000D+00  0.00000000D+00
 -0.00000000D+00  0.00000000D+00  0.16459228D-14 -0.33233082D-07  0.33233080D-07
 -0.00000000D+00  0.28508219D-14 -0.30592296D-06 -0.00000000D+00  0.37114010D-07
 -0.37113999D-07  0.00000000D+00 -0.00000000D+00  0.34164831D-06
MO   17     MO 0.0        OCC NO =    0.0000000  ORB. ENERGY =    0.000703
  0.59999981D-02 -0.52410298D-02 -0.23200490D-02 -0.87090835D-03  0.10673259D-01
 -0.21239856D-01  0.23517139D-01 -0.50639924D-02 -0.14202755D-03 -0.18170116D-02
  0.39858304D-05  0.00000000D+00 -0.00000000D+00 -0.13984390D-04 -0.00000000D+00
  0.00000000D+00 -0.84520341D-04 -0.00000000D+00 -0.00000000D+00  0.16404033D-03
  0.00000000D+00  0.00000000D+00 -0.23303365D-06 -0.25929654D-06 -0.25929654D-06
  0.00000000D+00  0.00000000D+00  0.00000000D+00 -0.17725820D-05 -0.14061643D-05
 -0.14061643D-05 -0.00000000D+00 -0.00000000D+00 -0.00000000D+00
MO   18     MO 0.0        OCC NO =    0.0000000  ORB. ENERGY =    0.000981
  0.32381700D-02 -0.23601871D-02 -0.14218365D-02  0.87449652D-03  0.54193387D-03
 -0.26044512D-02  0.31548585D-02 -0.61052426D-03 -0.78833186D-04 -0.23410965D-03
 -0.11248891D-04 -0.00000000D+00 -0.00000000D+00  0.83589763D-04  0.00000000D+00
  0.00000000D+00 -0.57454164D-04 -0.00000000D+00 -0.00000000D+00 -0.55038309D-04
 -0.00000000D+00 -0.00000000D+00 -0.12486484D-06 -0.12357880D-06 -0.12357880D-06
  0.00000000D+00  0.00000000D+00 -0.00000000D+00 -0.10620907D-05 -0.10796807D-05
 -0.10796807D-05 -0.00000000D+00 -0.00000000D+00  0.00000000D+00
MO   19     MO 0.0        OCC NO =    0.0000000  ORB. ENERGY =    0.000982
 -0.00000000D+00  0.00000000D+00  0.00000000D+00 -0.00000000D+00 -0.00000000D+00
  0.00000000D+00 -0.00000000D+00  0.00000000D+00  0.00000000D+00  0.00000000D+00
  0.00000000D+00  0.89790420D-05 -0.86199245D-05 -0.00000000D+00 -0.66934375D-04
  0.64257331D-04  0.00000000D+00  0.47946220D-04 -0.46028606D-04 -0.00000000D+00
  0.38187593D-04 -0.36660278D-04  0.00000000D+00  0.00000000D+00  0.00000000D+00
  0.16777372D-09 -0.16106288D-09 -0.00000000D+00  0.00000000D+00  0.00000000D+00
  0.00000000D+00 -0.20695153D-08  0.19867573D-08 -0.00000000D+00
MO   20     MO 0.0        OCC NO =    0.0000000  ORB. ENERGY =    0.000982
  0.00000000D+00 -0.00000000D+00 -0.00000000D+00  0.00000000D+00  0.00000000D+00
 -0.00000000D+00  0.00000000D+00 -0.00000000D+00 -0.00000000D+00 -0.00000000D+00
 -0.00000000D+00  0.86199245D-05  0.89790420D-05  0.00000000D+00 -0.64257331D-04
 -0.66934375D-04 -0.00000000D+00  0.46028606D-04  0.47946220D-04 -0.00000000D+00
  0.36660278D-04  0.38187593D-04 -0.00000000D+00 -0.00000000D+00 -0.00000000D+00
  0.16106288D-09  0.16777372D-09 -0.00000000D+00 -0.00000000D+00 -0.00000000D+00
 -0.00000000D+00 -0.19867573D-08 -0.20695153D-08  0.00000000D+00
MO   21     MO 0.0        OCC NO =    0.0000000  ORB. ENERGY =    0.001207
  0.26804427D-02 -0.12712735D-02 -0.16920087D-02  0.16779137D-02 -0.41377825D-02
  0.67130936D-02 -0.71410802D-02  0.16017102D-02 -0.17057230D-04  0.55939026D-03
  0.23781479D-05  0.00000000D+00 -0.00000000D+00 -0.23149885D-04 -0.00000000D+00
 -0.00000000D+00  0.67778019D-04  0.00000000D+00  0.00000000D+00 -0.86596337D-04
 -0.00000000D+00 -0.00000000D+00 -0.19075745D-06 -0.51518619D-07 -0.51518619D-07
 -0.00000000D+00 -0.00000000D+00 -0.00000000D+00  0.22795318D-06 -0.17175366D-05
 -0.17175366D-05  0.00000000D+00  0.00000000D+00  0.00000000D+00
MO   22     MO 0.0        OCC NO =    0.0000000  ORB. ENERGY =    0.001243
 -0.00000000D+00  0.00000000D+00  0.00000000D+00 -0.00000000D+00  0.00000000D+00
 -0.00000000D+00  0.00000000D+00 -0.00000000D+00 -0.00000000D+00 -0.00000000D+00
 -0.00000000D+00  0.13536871D-06 -0.41006222D-08  0.00000000D+00 -0.18944623D-05
  0.57387073D-07 -0.00000000D+00  0.11052038D-04 -0.33478810D-06  0.00000000D+00
 -0.27866659D-04  0.84414035D-06  0.00000000D+00  0.00000000D+00 -0.00000000D+00
 -0.17322243D-06  0.52472484D-08  0.00000000D+00 -0.00000000D+00  0.00000000D+00
  0.00000000D+00  0.24203241D-05 -0.73316373D-07 -0.00000000D+00
MO   23     MO 0.0        OCC NO =    0.0000000  ORB. ENERGY =    0.001243
  0.00000000D+00 -0.00000000D+00 -0.00000000D+00  0.00000000D+00 -0.00000000D+00
  0.00000000D+00 -0.00000000D+00  0.00000000D+00 -0.00000000D+00  0.00000000D+00
  0.00000000D+00 -0.41006222D-08 -0.13536871D-06 -0.00000000D+00  0.57387073D-07
  0.18944623D-05  0.00000000D+00 -0.33478810D-06 -0.11052038D-04 -0.00000000D+00
  0.84414035D-06  0.27866659D-04 -0.00000000D+00 -0.00000000D+00  0.00000000D+00
  0.52472484D-08  0.17322243D-06  0.00000000D+00  0.00000000D+00  0.00000000D+00
 -0.00000000D+00 -0.73316373D-07 -0.24203241D-05 -0.00000000D+00
MO   24     MO 0.0        OCC NO =    0.0000000  ORB. ENERGY =    0.001256
  0.00000000D+00 -0.00000000D+00 -0.00000000D+00  0.00000000D+00 -0.00000000D+00
  0.00000000D+00 -0.00000000D+00  0.00000000D+00  0.00000000D+00  0.00000000D+00
  0.00000000D+00 -0.00000000D+00 -0.00000000D+00 -0.00000000D+00  0.00000000D+00
  0.00000000D+00  0.00000000D+00 -0.00000000D+00 -0.00000000D+00 -0.00000000D+00
  0.00000000D+00  0.00000000D+00 -0.00000000D+00  0.85889177D-07 -0.85889177D-07
  0.00000000D+00  0.00000000D+00 -0.23329059D-07  0.00000000D+00 -0.12000245D-05
  0.12000245D-05 -0.00000000D+00 -0.00000000D+00  0.32594841D-06
MO   25     MO 0.0        OCC NO =    0.0000000  ORB. ENERGY =    0.001256
 -0.00000000D+00  0.00000000D+00  0.00000000D+00 -0.00000000D+00  0.00000000D+00
 -0.00000000D+00  0.00000000D+00 -0.00000000D+00 -0.00000000D+00 -0.00000000D+00
 -0.00000000D+00 -0.00000000D+00 -0.00000000D+00  0.00000000D+00  0.00000000D+00
  0.00000000D+00 -0.00000000D+00  0.00000000D+00 -0.00000000D+00  0.00000000D+00
 -0.00000000D+00  0.00000000D+00  0.00000000D+00 -0.11664530D-07  0.11664530D-07
 -0.00000000D+00  0.00000000D+00 -0.17177835D-06 -0.00000000D+00  0.16297421D-06
 -0.16297421D-06  0.00000000D+00 -0.00000000D+00  0.24000489D-05
MO   26     MO 0.0        OCC NO =    0.0000000  ORB. ENERGY =    0.001595
  0.65778123D-02 -0.24357230D-03 -0.67828602D-02  0.48863940D-02 -0.15462996D-01
  0.27519439D-01 -0.29674540D-01  0.65309267D-02  0.31194520D-04  0.23053056D-02
  0.44134939D-05 -0.00000000D+00  0.00000000D+00 -0.48276904D-04  0.00000000D+00
 -0.00000000D+00  0.19644111D-03 -0.00000000D+00 -0.00000000D+00 -0.22895880D-03
  0.00000000D+00  0.00000000D+00 -0.19822833D-06 -0.24535021D-06 -0.24535021D-06
  0.00000000D+00  0.00000000D+00  0.00000000D+00 -0.36505384D-05 -0.29921712D-05
 -0.29921712D-05 -0.00000000D+00 -0.00000000D+00 -0.00000000D+00
MO   27     MO 0.0        OCC NO =    0.0000000  ORB. ENERGY =    0.002624
  0.46041044D-02  0.38122509D-02 -0.10950934D-01  0.15248303D-02  0.31249180D-02
 -0.53987877D-02  0.59777827D-02 -0.11827271D-02 -0.12973990D-03 -0.44622601D-03
 -0.55877931D-05  0.00000000D+00 -0.00000000D+00  0.65625569D-04 -0.00000000D+00
  0.00000000D+00 -0.35253550D-03  0.00000000D+00  0.00000000D+00  0.44526822D-03
 -0.00000000D+00 -0.00000000D+00 -0.16019067D-06 -0.15095298D-06 -0.15095298D-06
  0.00000000D+00 -0.00000000D+00  0.00000000D+00 -0.27784901D-05 -0.29076325D-05
 -0.29076325D-05 -0.00000000D+00  0.00000000D+00 -0.00000000D+00
MO   28     MO 0.0        OCC NO =    0.0000000  ORB. ENERGY =    0.003130
 -0.00000000D+00 -0.00000000D+00  0.00000000D+00 -0.00000000D+00 -0.00000000D+00
 -0.00000000D+00  0.00000000D+00 -0.00000000D+00  0.00000000D+00 -0.00000000D+00
 -0.00000000D+00 -0.37543699D-06 -0.68626730D-05  0.00000000D+00  0.44083318D-05
  0.80580599D-04 -0.00000000D+00 -0.24622573D-04 -0.45007995D-03  0.00000000D+00
  0.29623825D-04  0.54149868D-03 -0.00000000D+00  0.00000000D+00  0.00000000D+00
 -0.16523649D-09 -0.30203802D-08 -0.00000000D+00  0.00000000D+00  0.00000000D+00
  0.00000000D+00  0.23117847D-08  0.42257618D-07  0.00000000D+00
MO   29     MO 0.0        OCC NO =    0.0000000  ORB. ENERGY =    0.003130
  0.00000000D+00  0.00000000D+00 -0.00000000D+00  0.00000000D+00  0.00000000D+00
 -0.00000000D+00  0.00000000D+00 -0.00000000D+00 -0.00000000D+00 -0.00000000D+00
  0.00000000D+00 -0.68626730D-05  0.37543699D-06  0.00000000D+00  0.80580599D-04
 -0.44083318D-05 -0.00000000D+00 -0.45007995D-03  0.24622573D-04  0.00000000D+00
  0.54149868D-03 -0.29623825D-04 -0.00000000D+00 -0.00000000D+00 -0.00000000D+00
 -0.30203802D-08  0.16523649D-09 -0.00000000D+00 -0.00000000D+00 -0.00000000D+00
 -0.00000000D+00  0.42257618D-07 -0.23117847D-08  0.00000000D+00
MO   30     MO 0.0        OCC NO =    0.0000000  ORB. ENERGY =    0.004728
 -0.48156727D-02 -0.81461678D-02  0.23830256D-01 -0.11384393D-01 -0.11530273D-01
  0.32540714D-01 -0.36897107D-01  0.71625730D-02  0.82019142D-03  0.27124364D-02
 -0.23858594D-05 -0.00000000D+00  0.00000000D+00  0.27910896D-04  0.00000000D+00
 -0.00000000D+00 -0.16818784D-03 -0.00000000D+00  0.00000000D+00  0.20999263D-03
  0.00000000D+00 -0.00000000D+00  0.16055306D-06  0.15709402D-06  0.15709402D-06
  0.00000000D+00  0.00000000D+00 -0.00000000D+00  0.34644021D-05  0.35126834D-05
  0.35126834D-05 -0.00000000D+00 -0.00000000D+00  0.00000000D+00
MO   31     MO 0.0        OCC NO =    0.0000000  ORB. ENERGY =    0.012745
  0.32881346D-02  0.75390521D-02 -0.27170639D-01  0.49415971D-01 -0.82283679D-01
  0.10984586D+00 -0.10534418D+00  0.22560986D-01 -0.13356388D-03  0.78407252D-02
 -0.65274442D-06 -0.00000000D+00 -0.00000000D+00  0.73374272D-05  0.00000000D+00
  0.00000000D+00 -0.43962968D-04 -0.00000000D+00  0.00000000D+00  0.81181736D-05
 -0.00000000D+00 -0.00000000D+00 -0.10628567D-06 -0.10860929D-06 -0.10860929D-06
  0.00000000D+00  0.00000000D+00  0.00000000D+00 -0.25994619D-05 -0.25671977D-05
 -0.25671977D-05 -0.00000000D+00 -0.00000000D+00 -0.00000000D+00
MO   32     MO 0.0        OCC NO =    0.0000000  ORB. ENERGY =    0.337117
 -0.48907227D-03 -0.10222727D-02  0.38767703D-02 -0.92910457D-02  0.31215829D-01
 -0.10921015D+00  0.34336137D+00 -0.69073512D+00  0.37996934D+00 -0.76977284D-01
  0.76665727D-08  0.00000000D+00 -0.00000000D+00 -0.91356146D-07 -0.00000000D+00
  0.00000000D+00  0.75800719D-06  0.00000000D+00 -0.00000000D+00 -0.47446915D-05
  0.00000000D+00  0.00000000D+00  0.16279083D-07  0.16268042D-07  0.16268042D-07
  0.00000000D+00  0.00000000D+00 -0.00000000D+00  0.36858212D-06  0.36873165D-06
  0.36873165D-06  0.00000000D+00  0.00000000D+00  0.00000000D+00
MO   33     MO 0.0        OCC NO =    0.0000000  ORB. ENERGY =    1.778510
 -0.19096349D-03 -0.39705399D-03  0.15057582D-02 -0.36112248D-02  0.12532499D-01
 -0.48373837D-01  0.19088621D+00 -0.67523640D+00  0.14678306D+01 -0.69038135D+00
  0.38927973D-09 -0.00000000D+00 -0.00000000D+00 -0.46975571D-08  0.00000000D+00
  0.00000000D+00  0.40660300D-07 -0.00000000D+00 -0.00000000D+00 -0.28424302D-06
  0.00000000D+00  0.00000000D+00  0.63575561D-08  0.63566443D-08  0.63566443D-08
  0.00000000D+00  0.00000000D+00 -0.00000000D+00  0.14367448D-06  0.14368690D-06
  0.14368690D-06 -0.00000000D+00  0.00000000D+00  0.00000000D+00
MO   34     MO 0.0        OCC NO =    0.0000000  ORB. ENERGY =    6.907690
 -0.91728494D-04 -0.19046730D-03  0.72216306D-03 -0.17293421D-02  0.60064145D-02
 -0.23314270D-01  0.93842176D-01 -0.37378328D+00  0.12822515D+01 -0.24398123D+01
  0.45898232D-10 -0.00000000D+00 -0.00000000D+00 -0.55546770D-09 -0.00000000D+00
  0.00000000D+00  0.48350628D-08  0.00000000D+00 -0.00000000D+00 -0.34275848D-07
  0.00000000D+00  0.00000000D+00  0.30539768D-08  0.30538632D-08  0.30538632D-08
  0.00000000D+00  0.00000000D+00 -0.00000000D+00  0.68984507D-07  0.68986049D-07
  0.68986049D-07 -0.00000000D+00  0.00000000D+00  0.00000000D+00
END DATA
 THE  HF ENERGY =     -0.267684899064 THE VIRIAL(-V/T)=   6.08975878


 $MOSPIN $END
 3 3 3 3 3 3 3 3 3 3 3 3 3 3 3 3 3 3 3 3 3 3 3 3 3 3 3 3 3 3 3 3 3 3


