[Molden Format]
[Atoms] AU
E+       1       1     0.00000000     0.00000000     0.00000000
[GTO]
  1 0
s  1 1.00
   1.0000000000E-04   1.0000000000E+00
s  1 1.00
   3.0000000000E-04   1.0000000000E+00
s  1 1.00
   9.0000000000E-04   1.0000000000E+00
s  1 1.00
   2.7000000000E-03   1.0000000000E+00
s  1 1.00
   8.1000000000E-03   1.0000000000E+00
s  1 1.00
   2.4300000000E-02   1.0000000000E+00
s  1 1.00
   7.2900000000E-02   1.0000000000E+00
s  1 1.00
   2.1870000000E-01   1.0000000000E+00
s  1 1.00
   6.5610000000E-01   1.0000000000E+00
s  1 1.00
   1.9683000000E+00   1.0000000000E+00
p  1 1.00
   1.0000000000E-04   1.0000000000E+00
p  1 1.00
   3.0000000000E-04   1.0000000000E+00
p  1 1.00
   9.0000000000E-04   1.0000000000E+00
p  1 1.00
   2.7000000000E-03   1.0000000000E+00
d  1 1.00
   1.0000000000E-04   1.0000000000E+00
d  1 1.00
   3.0000000000E-04   1.0000000000E+00
 
 
[MO]
Ene=    -2.67685E-01
Spin= Alpha
Occup=   1.0000000000
   1      -0.06463708
   2      -0.05863097
   3       0.09770271
   4      -0.10411135
   5       0.16565397
   6      -0.81589604
   7      -0.39517366
   8       0.11835426
   9       0.00346789
  10       0.01232391
  11       0.00889878
  12      -0.00000000
  13      -0.00000000
  14      -0.02608682
  15       0.00000000
  16      -0.00000000
  17       0.05025004
  18      -0.00000000
  19      -0.00000000
  20      -0.06547855
  21       0.00000000
  22       0.00000000
  23       0.00949750
  24       0.00923710
  25       0.00923710
  26      -0.00000000
  27       0.00000000
  28      -0.00000000
  29       0.03037981
  30       0.03090258
  31       0.03090258
  32       0.00000000
  33       0.00000000
  34       0.00000000
Ene=    -1.31887E-01
Spin= Alpha
Occup=   0.0000000000
   1      -0.24963251
   2      -0.22560059
   3       0.37679793
   4      -0.41033723
   5       1.00843412
   6       0.47570603
   7      -1.35002395
   8       0.25318369
   9      -0.02090584
  10       0.01743576
  11      -0.04844351
  12       0.00000000
  13       0.00000000
  14       0.14242933
  15      -0.00000000
  16      -0.00000000
  17      -0.27865280
  18       0.00000000
  19       0.00000000
  20       0.39066226
  21      -0.00000000
  22      -0.00000000
  23       0.03399908
  24       0.03704582
  25       0.03704582
  26      -0.00000000
  27      -0.00000000
  28       0.00000000
  29       0.12257712
  30       0.11645122
  31       0.11645122
  32      -0.00000000
  33       0.00000000
  34      -0.00000000
Ene=    -5.82913E-02
Spin= Alpha
Occup=   0.0000000000
   1       0.18528660
   2       0.16377636
   3      -0.27340622
   4       0.30818412
   5       0.85644086
   6      -1.98220547
   7       1.48728553
   8      -0.21170286
   9       0.01490876
  10      -0.01354329
  11      -0.11258110
  12       0.00000000
  13      -0.00000000
  14       0.33122687
  15      -0.00000000
  16       0.00000000
  17      -0.65776805
  18       0.00000000
  19       0.00000000
  20       1.02309269
  21      -0.00000000
  22      -0.00000000
  23      -0.03559460
  24      -0.02240541
  25      -0.02240541
  26       0.00000000
  27       0.00000000
  28       0.00000000
  29      -0.06953565
  30      -0.09613353
  31      -0.09613353
  32      -0.00000000
  33       0.00000000
  34      -0.00000000
Ene=    -2.39091E-02
Spin= Alpha
Occup=   0.0000000000
   1       0.00000000
   2      -0.00000000
   3       0.00000000
   4      -0.00000000
   5       0.00000000
   6      -0.00000000
   7       0.00000000
   8      -0.00000000
   9       0.00000000
  10      -0.00000000
  11       0.00000000
  12      -0.16900925
  13      -0.04169842
  14      -0.00000000
  15       0.48853032
  16       0.12053152
  17       0.00000000
  18      -0.93512016
  19      -0.23071537
  20      -0.00000000
  21       1.39498382
  22       0.34417417
  23      -0.00000000
  24      -0.00000000
  25      -0.00000000
  26      -0.00881223
  27      -0.00217418
  28      -0.00000000
  29      -0.00000000
  30      -0.00000000
  31      -0.00000000
  32       0.01774498
  33       0.00437809
  34       0.00000000
Ene=    -2.39091E-02
Spin= Alpha
Occup=   0.0000000000
   1      -0.00000000
   2      -0.00000000
   3       0.00000000
   4      -0.00000000
   5       0.00000000
   6      -0.00000000
   7       0.00000000
   8      -0.00000000
   9       0.00000000
  10      -0.00000000
  11      -0.00000000
  12       0.04169842
  13      -0.16900925
  14       0.00000000
  15      -0.12053152
  16       0.48853032
  17      -0.00000000
  18       0.23071537
  19      -0.93512016
  20      -0.00000000
  21      -0.34417417
  22       1.39498382
  23      -0.00000000
  24       0.00000000
  25      -0.00000000
  26       0.00217418
  27      -0.00881223
  28      -0.00000000
  29       0.00000000
  30       0.00000000
  31       0.00000000
  32      -0.00437809
  33       0.01774498
  34       0.00000000
Ene=    -1.61279E-02
Spin= Alpha
Occup=   0.0000000000
   1       0.24684358
   2       0.20477689
   3      -0.34337220
   4       0.26718698
   5      -1.73371104
   6       2.19088711
   7      -1.21576211
   8       0.13087399
   9      -0.00232075
  10       0.00874830
  11      -0.10127319
  12       0.00000000
  13       0.00000000
  14       0.29004915
  15      -0.00000000
  16       0.00000000
  17      -0.54787658
  18       0.00000000
  19      -0.00000000
  20       0.89372336
  21       0.00000000
  22       0.00000000
  23      -0.04364766
  24      -0.03212163
  25      -0.03212163
  26       0.00000000
  27      -0.00000000
  28       0.00000000
  29      -0.09807158
  30      -0.12144002
  31      -0.12144002
  32      -0.00000000
  33       0.00000000
  34      -0.00000000
Ene=     6.60089E-05
Spin= Alpha
Occup=   0.0000000000
   1      -1.52121089
   2       0.70275535
   3       0.11106945
   4       0.05909230
   5      -0.22633118
   6       0.19993539
   7      -0.09751350
   8       0.00928255
   9       0.00009252
  10       0.00063905
  11       0.11006757
  12       0.00000000
  13      -0.00000000
  14      -0.06868813
  15      -0.00000000
  16       0.00000000
  17       0.14575642
  18       0.00000000
  19      -0.00000000
  20      -0.05679047
  21      -0.00000000
  22       0.00000000
  23       0.66224063
  24       0.69004676
  25       0.69004676
  26       0.00000000
  27      -0.00000000
  28       0.00000000
  29       0.32040173
  30       0.26338329
  31       0.26338329
  32       0.00000000
  33      -0.00000000
  34      -0.00000000
Ene=     2.08486E-04
Spin= Alpha
Occup=   0.0000000000
   1      -1.89825190
   2       0.35331201
   3       0.17442324
   4      -0.13373435
   5       0.24201620
   6      -0.19625085
   7       0.09425926
   8      -0.00911778
   9      -0.00003077
  10      -0.00062123
  11      -1.09965801
  12       0.00000000
  13       0.00000000
  14       0.34898100
  15       0.00000000
  16      -0.00000000
  17      -0.24257340
  18      -0.00000000
  19       0.00000000
  20       0.09506803
  21       0.00000000
  22      -0.00000000
  23       0.52112699
  24       0.48606561
  25       0.48606561
  26      -0.00000000
  27       0.00000000
  28       0.00000000
  29       0.24001716
  30       0.31220945
  31       0.31220945
  32       0.00000000
  33       0.00000000
  34       0.00000000
Ene=     2.25443E-04
Spin= Alpha
Occup=   0.0000000000
   1      -0.00000000
   2       0.00000000
   3       0.00000000
   4      -0.00000000
   5       0.00000000
   6      -0.00000000
   7       0.00000000
   8      -0.00000000
   9       0.00000000
  10      -0.00000000
  11       0.00000000
  12       1.19374724
  13      -0.04417895
  14       0.00000000
  15      -0.33939644
  16       0.01256060
  17      -0.00000000
  18       0.09630264
  19      -0.00356403
  20      -0.00000000
  21      -0.03413573
  22       0.00126332
  23      -0.00000000
  24       0.00000000
  25       0.00000000
  26      -0.00122828
  27       0.00004546
  28       0.00000000
  29       0.00000000
  30      -0.00000000
  31      -0.00000000
  32       0.00259816
  33      -0.00009615
  34       0.00000000
Ene=     2.25443E-04
Spin= Alpha
Occup=   0.0000000000
   1       0.00000000
   2      -0.00000000
   3      -0.00000000
   4       0.00000000
   5      -0.00000000
   6       0.00000000
   7      -0.00000000
   8       0.00000000
   9      -0.00000000
  10       0.00000000
  11       0.00000000
  12       0.04417895
  13       1.19374724
  14      -0.00000000
  15      -0.01256060
  16      -0.33939644
  17       0.00000000
  18       0.00356403
  19       0.09630264
  20      -0.00000000
  21      -0.00126332
  22      -0.03413573
  23      -0.00000000
  24      -0.00000000
  25      -0.00000000
  26      -0.00004546
  27      -0.00122828
  28       0.00000000
  29      -0.00000000
  30      -0.00000000
  31      -0.00000000
  32       0.00009615
  33       0.00259816
  34      -0.00000000
Ene=     2.88584E-04
Spin= Alpha
Occup=   0.0000000000
   1       5.68893289
   2      -1.27453909
   3      -0.51399077
   4       0.22249347
   5      -0.40025950
   6       0.33343923
   7      -0.16052238
   8       0.01550919
   9       0.00005522
  10       0.00105708
  11      -0.44405614
  12       0.00000000
  13      -0.00000000
  14       0.08472412
  15      -0.00000000
  16       0.00000000
  17       0.18853775
  18      -0.00000000
  19      -0.00000000
  20      -0.07732455
  21       0.00000000
  22       0.00000000
  23      -1.37162903
  24      -1.31994712
  25      -1.31994712
  26       0.00000000
  27      -0.00000000
  28      -0.00000000
  29      -0.73016258
  30      -0.83704250
  31      -0.83704250
  32      -0.00000000
  33      -0.00000000
  34      -0.00000000
Ene=     3.30848E-04
Spin= Alpha
Occup=   0.0000000000
   1       0.00376591
   2      -0.00066380
   3      -0.00066351
   4       0.00038385
   5      -0.00042840
   6       0.00035297
   7      -0.00017536
   8       0.00001600
   9       0.00000045
  10       0.00000113
  11       0.00015958
  12      -0.00000000
  13       0.00000000
  14      -0.00026116
  15       0.00000000
  16      -0.00000000
  17       0.00017107
  18      -0.00000000
  19       0.00000000
  20      -0.00018642
  21       0.00000000
  22      -0.00000000
  23      -1.09895753
  24       0.54827272
  25       0.54827276
  26       0.00000000
  27      -0.00000000
  28      -0.00000000
  29       0.17873656
  30      -0.09030713
  31      -0.09030714
  32      -0.00000000
  33       0.00000000
  34       0.00000000
Ene=     3.30848E-04
Spin= Alpha
Occup=   0.0000000000
   1      -0.00000000
   2       0.00000000
   3       0.00000000
   4      -0.00000000
   5       0.00000000
   6      -0.00000000
   7       0.00000000
   8      -0.00000000
   9      -0.00000000
  10      -0.00000000
  11      -0.00000000
  12      -0.00014540
  13       0.00003594
  14       0.00000000
  15       0.00020961
  16      -0.00005181
  17      -0.00000000
  18      -0.00012544
  19       0.00003101
  20       0.00000000
  21       0.00016850
  22      -0.00004165
  23       0.00000000
  24      -0.00000000
  25       0.00000000
  26       1.06606574
  27      -0.26352454
  28      -0.00000000
  29      -0.00000000
  30       0.00000000
  31      -0.00000000
  32      -0.17412146
  33       0.04304170
  34       0.00000000
Ene=     3.30848E-04
Spin= Alpha
Occup=   0.0000000000
   1       0.00000000
   2      -0.00000000
   3      -0.00000000
   4       0.00000000
   5      -0.00000000
   6       0.00000000
   7      -0.00000000
   8       0.00000000
   9       0.00000000
  10       0.00000000
  11       0.00000000
  12      -0.00003594
  13      -0.00014540
  14      -0.00000000
  15       0.00005181
  16       0.00020961
  17       0.00000000
  18      -0.00003101
  19      -0.00012544
  20      -0.00000000
  21       0.00004165
  22       0.00016850
  23      -0.00000000
  24       0.00000000
  25      -0.00000000
  26       0.26352454
  27       1.06606574
  28       0.00000001
  29       0.00000000
  30      -0.00000000
  31       0.00000000
  32      -0.04304170
  33      -0.17412146
  34      -0.00000000
Ene=     3.30849E-04
Spin= Alpha
Occup=   0.0000000000
   1       0.00000000
   2      -0.00000000
   3      -0.00000000
   4       0.00000000
   5      -0.00000000
   6       0.00000000
   7      -0.00000000
   8       0.00000000
   9       0.00000000
  10       0.00000000
  11       0.00000000
  12      -0.00000000
  13       0.00000000
  14      -0.00000000
  15       0.00000000
  16      -0.00000000
  17       0.00000000
  18      -0.00000000
  19       0.00000000
  20      -0.00000000
  21       0.00000000
  22      -0.00000000
  23      -0.00000002
  24       0.92933571
  25      -0.92933569
  26       0.00000000
  27      -0.00000000
  28      -0.23314737
  29       0.00000000
  30      -0.15176710
  31       0.15176710
  32      -0.00000000
  33       0.00000000
  34       0.03807462
Ene=     3.30849E-04
Spin= Alpha
Occup=   0.0000000000
   1      -0.00000000
   2       0.00000000
   3       0.00000000
   4      -0.00000000
   5       0.00000000
   6      -0.00000000
   7       0.00000000
   8      -0.00000000
   9      -0.00000000
  10      -0.00000000
  11      -0.00000000
  12       0.00000000
  13      -0.00000000
  14       0.00000000
  15      -0.00000000
  16       0.00000000
  17      -0.00000000
  18       0.00000000
  19      -0.00000000
  20       0.00000000
  21      -0.00000000
  22       0.00000000
  23       0.00000001
  24      -0.20191155
  25       0.20191154
  26      -0.00000000
  27       0.00000001
  28      -1.07310443
  29      -0.00000000
  30       0.03297359
  31      -0.03297358
  32       0.00000000
  33      -0.00000000
  34       0.17524555
Ene=     7.02769E-04
Spin= Alpha
Occup=   0.0000000000
   1       8.41862227
   2      -3.22600915
   3      -0.62647707
   4      -0.10316670
   5       0.55465531
   6      -0.48421336
   7       0.23519536
   8      -0.02221756
   9      -0.00027336
  10      -0.00153419
  11       0.27962676
  12       0.00000000
  13      -0.00000000
  14      -0.24848597
  15      -0.00000000
  16       0.00000000
  17      -0.38038030
  18      -0.00000000
  19      -0.00000000
  20       0.18698460
  21       0.00000000
  22       0.00000000
  23      -1.41582370
  24      -1.57538703
  25      -1.57538703
  26       0.00000000
  27       0.00000000
  28       0.00000000
  29      -1.57483360
  30      -1.24929330
  31      -1.24929330
  32      -0.00000000
  33      -0.00000000
  34      -0.00000000
Ene=     9.80776E-04
Spin= Alpha
Occup=   0.0000000000
   1       4.54348969
   2      -1.45276513
   3      -0.38393497
   4       0.10359175
   5       0.02816258
   6      -0.05937470
   7       0.03155180
   8      -0.00267859
   9      -0.00015173
  10      -0.00019767
  11      -0.78916831
  12      -0.00000000
  13      -0.00000000
  14       1.48529062
  15       0.00000000
  16       0.00000000
  17      -0.25857009
  18      -0.00000000
  19      -0.00000000
  20      -0.06273650
  21      -0.00000000
  22      -0.00000000
  23      -0.75863119
  24      -0.75081773
  25      -0.75081773
  26       0.00000000
  27       0.00000000
  28      -0.00000000
  29      -0.94360443
  30      -0.95923209
  31      -0.95923209
  32      -0.00000000
  33      -0.00000000
  34       0.00000000
Ene=     9.81778E-04
Spin= Alpha
Occup=   0.0000000000
   1      -0.00000000
   2       0.00000000
   3       0.00000000
   4      -0.00000000
   5      -0.00000000
   6       0.00000000
   7      -0.00000000
   8       0.00000000
   9       0.00000000
  10       0.00000000
  11       0.00000000
  12       0.62992655
  13      -0.60473259
  14      -0.00000000
  15      -1.18934420
  16       1.14177630
  17       0.00000000
  18       0.21577998
  19      -0.20714984
  20      -0.00000000
  21       0.04352888
  22      -0.04178794
  23       0.00000000
  24       0.00000000
  25       0.00000000
  26       0.00058851
  27      -0.00056497
  28      -0.00000000
  29       0.00000000
  30       0.00000000
  31       0.00000000
  32      -0.00106154
  33       0.00101909
  34      -0.00000000
Ene=     9.81778E-04
Spin= Alpha
Occup=   0.0000000000
   1       0.00000000
   2      -0.00000000
   3      -0.00000000
   4       0.00000000
   5       0.00000000
   6      -0.00000000
   7       0.00000000
   8      -0.00000000
   9      -0.00000000
  10      -0.00000000
  11      -0.00000000
  12       0.60473259
  13       0.62992655
  14       0.00000000
  15      -1.14177630
  16      -1.18934420
  17      -0.00000000
  18       0.20714984
  19       0.21577998
  20      -0.00000000
  21       0.04178794
  22       0.04352888
  23      -0.00000000
  24      -0.00000000
  25      -0.00000000
  26       0.00056497
  27       0.00058851
  28      -0.00000000
  29      -0.00000000
  30      -0.00000000
  31      -0.00000000
  32      -0.00101909
  33      -0.00106154
  34       0.00000000
Ene=     1.20652E-03
Spin= Alpha
Occup=   0.0000000000
   1       3.76094021
   2      -0.78250651
   3      -0.45688892
   4       0.19876353
   5      -0.21502740
   6       0.15304104
   7      -0.07141808
   8       0.00702728
   9      -0.00003283
  10       0.00047232
  11       0.16683946
  12       0.00000000
  13      -0.00000000
  14      -0.41134591
  15      -0.00000000
  16      -0.00000000
  17       0.30503217
  18       0.00000000
  19       0.00000000
  20      -0.09870854
  21      -0.00000000
  22      -0.00000000
  23      -1.15896962
  24      -0.31300751
  25      -0.31300751
  26      -0.00000000
  27      -0.00000000
  28      -0.00000000
  29       0.20252284
  30      -1.52592907
  31      -1.52592907
  32       0.00000000
  33       0.00000000
  34       0.00000000
Ene=     1.24288E-03
Spin= Alpha
Occup=   0.0000000000
   1      -0.00000000
   2       0.00000000
   3       0.00000000
   4      -0.00000000
   5       0.00000000
   6      -0.00000000
   7       0.00000000
   8      -0.00000000
   9      -0.00000000
  10      -0.00000000
  11      -0.00000000
  12       0.00949682
  13      -0.00028768
  14       0.00000000
  15      -0.03366234
  16       0.00101970
  17      -0.00000000
  18       0.04973924
  19      -0.00150670
  20       0.00000000
  21      -0.03176436
  22       0.00096221
  23       0.00000000
  24       0.00000000
  25      -0.00000000
  26      -0.60762279
  27       0.01840609
  28       0.00000000
  29      -0.00000000
  30       0.00000000
  31       0.00000000
  32       1.24148433
  33      -0.03760700
  34      -0.00000000
Ene=     1.24288E-03
Spin= Alpha
Occup=   0.0000000000
   1       0.00000000
   2      -0.00000000
   3      -0.00000000
   4       0.00000000
   5      -0.00000000
   6       0.00000000
   7      -0.00000000
   8       0.00000000
   9      -0.00000000
  10       0.00000000
  11       0.00000000
  12      -0.00028768
  13      -0.00949682
  14      -0.00000000
  15       0.00101970
  16       0.03366234
  17       0.00000000
  18      -0.00150670
  19      -0.04973924
  20      -0.00000000
  21       0.00096221
  22       0.03176436
  23      -0.00000000
  24      -0.00000000
  25       0.00000000
  26       0.01840609
  27       0.60762279
  28       0.00000000
  29       0.00000000
  30       0.00000000
  31      -0.00000000
  32      -0.03760700
  33      -1.24148433
  34      -0.00000000
Ene=     1.25579E-03
Spin= Alpha
Occup=   0.0000000000
   1       0.00000000
   2      -0.00000000
   3      -0.00000000
   4       0.00000000
   5      -0.00000000
   6       0.00000000
   7      -0.00000000
   8       0.00000000
   9       0.00000000
  10       0.00000000
  11       0.00000000
  12      -0.00000000
  13      -0.00000000
  14      -0.00000000
  15       0.00000000
  16       0.00000000
  17       0.00000000
  18      -0.00000000
  19      -0.00000000
  20      -0.00000000
  21       0.00000000
  22       0.00000000
  23      -0.00000000
  24       0.52182993
  25      -0.52182993
  26       0.00000000
  27       0.00000000
  28      -0.08183275
  29       0.00000000
  30      -1.06615034
  31       1.06615034
  32      -0.00000000
  33      -0.00000000
  34       0.16719242
Ene=     1.25579E-03
Spin= Alpha
Occup=   0.0000000000
   1      -0.00000000
   2       0.00000000
   3       0.00000000
   4      -0.00000000
   5       0.00000000
   6      -0.00000000
   7       0.00000000
   8      -0.00000000
   9      -0.00000000
  10      -0.00000000
  11      -0.00000000
  12      -0.00000000
  13      -0.00000000
  14       0.00000000
  15       0.00000000
  16       0.00000000
  17      -0.00000000
  18       0.00000000
  19      -0.00000000
  20       0.00000000
  21      -0.00000000
  22       0.00000000
  23       0.00000000
  24      -0.07086924
  25       0.07086924
  26      -0.00000000
  27       0.00000000
  28      -0.60255730
  29      -0.00000000
  30       0.14479289
  31      -0.14479289
  32       0.00000000
  33      -0.00000000
  34       1.23108437
Ene=     1.59505E-03
Spin= Alpha
Occup=   0.0000000000
   1       9.22935567
   2      -0.14992597
   3      -1.83155892
   4       0.57883604
   5      -0.80356271
   6       0.62737148
   7      -0.29677564
   8       0.02865353
   9       0.00006004
  10       0.00194648
  11       0.30962958
  12      -0.00000000
  13       0.00000000
  14      -0.85782314
  15       0.00000000
  16      -0.00000000
  17       0.88407511
  18      -0.00000000
  19      -0.00000000
  20      -0.26098320
  21       0.00000000
  22       0.00000000
  23      -1.20435987
  24      -1.49065441
  25      -1.49065441
  26       0.00000000
  27       0.00000000
  28       0.00000000
  29      -3.24328619
  30      -2.65836608
  31      -2.65836608
  32      -0.00000000
  33      -0.00000000
  34      -0.00000000
Ene=     2.62379E-03
Spin= Alpha
Occup=   0.0000000000
   1       6.46003795
   2       2.34655339
   3      -2.95705358
   4       0.18062947
   5       0.16239205
   6      -0.12307829
   7       0.05978392
   8      -0.00518905
   9      -0.00024971
  10      -0.00037677
  11      -0.39201278
  12       0.00000000
  13      -0.00000000
  14       1.16608826
  15      -0.00000000
  16       0.00000000
  17      -1.58657142
  18       0.00000000
  19       0.00000000
  20       0.50754775
  21      -0.00000000
  22      -0.00000000
  23      -0.97325749
  24      -0.91713282
  25      -0.91713282
  26       0.00000000
  27      -0.00000000
  28       0.00000000
  29      -2.46852314
  30      -2.58325846
  31      -2.58325846
  32      -0.00000000
  33       0.00000000
  34      -0.00000000
Ene=     3.12976E-03
Spin= Alpha
Occup=   0.0000000000
   1      -0.00000000
   2      -0.00000000
   3       0.00000000
   4      -0.00000000
   5      -0.00000000
   6      -0.00000000
   7       0.00000000
   8      -0.00000000
   9       0.00000000
  10      -0.00000000
  11      -0.00000000
  12      -0.02633886
  13      -0.48145225
  14       0.00000000
  15       0.07833081
  16       1.43182135
  17      -0.00000000
  18      -0.11081287
  19      -2.02556621
  20       0.00000000
  21       0.03376730
  22       0.61723794
  23      -0.00000000
  24       0.00000000
  25       0.00000000
  26      -0.00057961
  27      -0.01059477
  28      -0.00000000
  29       0.00000000
  30       0.00000000
  31       0.00000000
  32       0.00118581
  33       0.02167568
  34       0.00000000
Ene=     3.12976E-03
Spin= Alpha
Occup=   0.0000000000
   1       0.00000000
   2       0.00000000
   3      -0.00000000
   4       0.00000000
   5       0.00000000
   6      -0.00000000
   7       0.00000000
   8      -0.00000000
   9      -0.00000000
  10      -0.00000000
  11       0.00000000
  12      -0.48145225
  13       0.02633886
  14       0.00000000
  15       1.43182135
  16      -0.07833081
  17      -0.00000000
  18      -2.02556621
  19       0.11081287
  20       0.00000000
  21       0.61723794
  22      -0.03376730
  23      -0.00000000
  24      -0.00000000
  25      -0.00000000
  26      -0.01059477
  27       0.00057961
  28      -0.00000000
  29      -0.00000000
  30      -0.00000000
  31      -0.00000000
  32       0.02167568
  33      -0.00118581
  34       0.00000000
Ene=     4.72771E-03
Spin= Alpha
Occup=   0.0000000000
   1      -6.75689033
   2      -5.01420767
   3       6.43482502
   4      -1.34858079
   5      -0.59919161
   6       0.74184347
   7      -0.36900868
   8       0.03142479
   9       0.00157862
  10       0.00229024
  11      -0.16738046
  12      -0.00000000
  13       0.00000000
  14       0.49594340
  15       0.00000000
  16      -0.00000000
  17      -0.75692243
  18      -0.00000000
  19       0.00000000
  20       0.23936423
  21       0.00000000
  22      -0.00000000
  23       0.97545926
  24       0.95444346
  25       0.95444346
  26       0.00000000
  27       0.00000000
  28      -0.00000000
  29       3.07791511
  30       3.12081024
  31       3.12081024
  32      -0.00000000
  33      -0.00000000
  34       0.00000000
Ene=     1.27448E-02
Spin= Alpha
Occup=   0.0000000000
   1       4.61359525
   2       4.64050997
   3      -7.33682017
   4       5.85375333
   5      -4.27602116
   6       2.50419932
   7      -1.05354921
   8       0.09898318
   9      -0.00025707
  10       0.00662030
  11      -0.04579342
  12      -0.00000000
  13      -0.00000000
  14       0.13037735
  15       0.00000000
  16       0.00000000
  17      -0.19785352
  18      -0.00000000
  19       0.00000000
  20       0.00925366
  21      -0.00000000
  22      -0.00000000
  23      -0.64575127
  24      -0.65986869
  25      -0.65986869
  26       0.00000000
  27       0.00000000
  28       0.00000000
  29      -2.30946719
  30      -2.28080245
  31      -2.28080245
  32      -0.00000000
  33      -0.00000000
  34      -0.00000000
Ene=     3.37117E-01
Spin= Alpha
Occup=   0.0000000000
   1      -0.68621933
   2      -0.62923913
   3       1.04683466
   4      -1.10060550
   5       1.62218736
   6      -2.48970684
   7       3.43396365
   8      -3.03050399
   9       0.73132586
  10      -0.06499561
  11       0.00053785
  12       0.00000000
  13      -0.00000000
  14      -0.00162329
  15      -0.00000000
  16       0.00000000
  17       0.00341138
  18       0.00000000
  19      -0.00000000
  20      -0.00540833
  21       0.00000000
  22       0.00000000
  23       0.09890551
  24       0.09883843
  25       0.09883843
  26       0.00000000
  27       0.00000000
  28      -0.00000000
  29       0.32746328
  30       0.32759613
  31       0.32759613
  32       0.00000000
  33       0.00000000
  34       0.00000000
Ene=     1.77851E+00
Spin= Alpha
Occup=   0.0000000000
   1      -0.26794166
   2      -0.24439850
   3       0.40659614
   4      -0.42778111
   5       0.65127411
   6      -1.10279741
   7       1.90905662
   8      -2.96250550
   9       2.82512913
  10      -0.58292206
  11       0.00002731
  12      -0.00000000
  13      -0.00000000
  14      -0.00008347
  15       0.00000000
  16       0.00000000
  17       0.00018299
  18      -0.00000000
  19      -0.00000000
  20      -0.00032400
  21       0.00000000
  22       0.00000000
  23       0.03862609
  24       0.03862055
  25       0.03862055
  26       0.00000000
  27       0.00000000
  28      -0.00000000
  29       0.12764623
  30       0.12765726
  31       0.12765726
  32      -0.00000000
  33       0.00000000
  34       0.00000000
Ene=     6.90769E+00
Spin= Alpha
Occup=   0.0000000000
   1      -0.12870463
   2      -0.11723827
   3       0.19500390
   4      -0.20485567
   5       0.31213426
   6      -0.53150459
   7       0.93851741
   8      -1.63992200
   9       2.46794576
  10      -2.06005045
  11       0.00000322
  12      -0.00000000
  13      -0.00000000
  14      -0.00000987
  15      -0.00000000
  16       0.00000000
  17       0.00002176
  18       0.00000000
  19      -0.00000000
  20      -0.00003907
  21       0.00000000
  22       0.00000000
  23       0.01855480
  24       0.01855411
  25       0.01855411
  26       0.00000000
  27       0.00000000
  28      -0.00000000
  29       0.06128863
  30       0.06129000
  31       0.06129000
  32      -0.00000000
  33       0.00000000
  34       0.00000000
