[Molden Format]
[Title]
 Molden2AIM, Version 3.1.0 (02/25/2015)           Time: Thu Oct 17 19:11:52 2024

[Atoms] AU
E+       1       1     0.00000000     0.00000000     0.00000000
[GTO]
    1 0
 S   1 1.0
    0.1000000000D-03      0.1000000000D+01
 S   1 1.0
    0.3000000000D-03      0.1000000000D+01
 S   1 1.0
    0.9000000000D-03      0.1000000000D+01
 S   1 1.0
    0.2700000000D-02      0.1000000000D+01
 S   1 1.0
    0.8100000000D-02      0.1000000000D+01
 S   1 1.0
    0.2430000000D-01      0.1000000000D+01
 S   1 1.0
    0.7290000000D-01      0.1000000000D+01
 S   1 1.0
    0.2187000000D+00      0.1000000000D+01
 S   1 1.0
    0.6561000000D+00      0.1000000000D+01
 S   1 1.0
    0.1968300000D+01      0.1000000000D+01
 P   1 1.0
    0.1000000000D-03      0.1000000000D+01
 P   1 1.0
    0.3000000000D-03      0.1000000000D+01
 P   1 1.0
    0.9000000000D-03      0.1000000000D+01
 P   1 1.0
    0.2700000000D-02      0.1000000000D+01
 D   1 1.0
    0.1000000000D-03      0.1000000000D+01
 D   1 1.0
    0.3000000000D-03      0.1000000000D+01


[MO]
 Ene=         -0.26768500
 Spin= Alpha
 Occup=        1.00000000
    1       -0.0646370800
    2       -0.0586309700
    3        0.0977027100
    4       -0.1041113500
    5        0.1656539700
    6       -0.8158960400
    7       -0.3951736600
    8        0.1183542600
    9        0.0034678900
   10        0.0123239100
   11        0.0088987800
   12       -0.0000000000
   13       -0.0000000000
   14       -0.0260868200
   15        0.0000000000
   16       -0.0000000000
   17        0.0502500400
   18       -0.0000000000
   19       -0.0000000000
   20       -0.0654785500
   21        0.0000000000
   22        0.0000000000
   23        0.0094975000
   24        0.0092371000
   25        0.0092371000
   26       -0.0000000000
   27        0.0000000000
   28       -0.0000000000
   29        0.0303798100
   30        0.0309025800
   31        0.0309025800
   32        0.0000000000
   33        0.0000000000
   34        0.0000000000
 Ene=         -0.13188700
 Spin= Alpha
 Occup=        0.00000000
    1       -0.2496325100
    2       -0.2256005900
    3        0.3767979300
    4       -0.4103372300
    5        1.0084341200
    6        0.4757060300
    7       -1.3500239500
    8        0.2531836900
    9       -0.0209058400
   10        0.0174357600
   11       -0.0484435100
   12        0.0000000000
   13        0.0000000000
   14        0.1424293300
   15       -0.0000000000
   16       -0.0000000000
   17       -0.2786528000
   18        0.0000000000
   19        0.0000000000
   20        0.3906622600
   21       -0.0000000000
   22       -0.0000000000
   23        0.0339990800
   24        0.0370458200
   25        0.0370458200
   26       -0.0000000000
   27       -0.0000000000
   28        0.0000000000
   29        0.1225771200
   30        0.1164512200
   31        0.1164512200
   32       -0.0000000000
   33        0.0000000000
   34       -0.0000000000
 Ene=         -0.05829130
 Spin= Alpha
 Occup=        0.00000000
    1        0.1852866000
    2        0.1637763600
    3       -0.2734062200
    4        0.3081841200
    5        0.8564408600
    6       -1.9822054700
    7        1.4872855300
    8       -0.2117028600
    9        0.0149087600
   10       -0.0135432900
   11       -0.1125811000
   12        0.0000000000
   13       -0.0000000000
   14        0.3312268700
   15       -0.0000000000
   16        0.0000000000
   17       -0.6577680500
   18        0.0000000000
   19        0.0000000000
   20        1.0230926900
   21       -0.0000000000
   22       -0.0000000000
   23       -0.0355946000
   24       -0.0224054100
   25       -0.0224054100
   26        0.0000000000
   27        0.0000000000
   28        0.0000000000
   29       -0.0695356500
   30       -0.0961335300
   31       -0.0961335300
   32       -0.0000000000
   33        0.0000000000
   34       -0.0000000000
 Ene=         -0.02390910
 Spin= Alpha
 Occup=        0.00000000
    1        0.0000000000
    2       -0.0000000000
    3        0.0000000000
    4       -0.0000000000
    5        0.0000000000
    6       -0.0000000000
    7        0.0000000000
    8       -0.0000000000
    9        0.0000000000
   10       -0.0000000000
   11        0.0000000000
   12       -0.1690092500
   13       -0.0416984200
   14       -0.0000000000
   15        0.4885303200
   16        0.1205315200
   17        0.0000000000
   18       -0.9351201600
   19       -0.2307153700
   20       -0.0000000000
   21        1.3949838200
   22        0.3441741700
   23       -0.0000000000
   24       -0.0000000000
   25       -0.0000000000
   26       -0.0088122300
   27       -0.0021741800
   28       -0.0000000000
   29       -0.0000000000
   30       -0.0000000000
   31       -0.0000000000
   32        0.0177449800
   33        0.0043780900
   34        0.0000000000
 Ene=         -0.02390910
 Spin= Alpha
 Occup=        0.00000000
    1       -0.0000000000
    2       -0.0000000000
    3        0.0000000000
    4       -0.0000000000
    5        0.0000000000
    6       -0.0000000000
    7        0.0000000000
    8       -0.0000000000
    9        0.0000000000
   10       -0.0000000000
   11       -0.0000000000
   12        0.0416984200
   13       -0.1690092500
   14        0.0000000000
   15       -0.1205315200
   16        0.4885303200
   17       -0.0000000000
   18        0.2307153700
   19       -0.9351201600
   20       -0.0000000000
   21       -0.3441741700
   22        1.3949838200
   23       -0.0000000000
   24        0.0000000000
   25       -0.0000000000
   26        0.0021741800
   27       -0.0088122300
   28       -0.0000000000
   29        0.0000000000
   30        0.0000000000
   31        0.0000000000
   32       -0.0043780900
   33        0.0177449800
   34        0.0000000000
 Ene=         -0.01612790
 Spin= Alpha
 Occup=        0.00000000
    1        0.2468435800
    2        0.2047768900
    3       -0.3433722000
    4        0.2671869800
    5       -1.7337110400
    6        2.1908871100
    7       -1.2157621100
    8        0.1308739900
    9       -0.0023207500
   10        0.0087483000
   11       -0.1012731900
   12        0.0000000000
   13        0.0000000000
   14        0.2900491500
   15       -0.0000000000
   16        0.0000000000
   17       -0.5478765800
   18        0.0000000000
   19       -0.0000000000
   20        0.8937233600
   21        0.0000000000
   22        0.0000000000
   23       -0.0436476600
   24       -0.0321216300
   25       -0.0321216300
   26        0.0000000000
   27       -0.0000000000
   28        0.0000000000
   29       -0.0980715800
   30       -0.1214400200
   31       -0.1214400200
   32       -0.0000000000
   33        0.0000000000
   34       -0.0000000000
 Ene=          0.00006601
 Spin= Alpha
 Occup=        0.00000000
    1       -1.5212108900
    2        0.7027553500
    3        0.1110694500
    4        0.0590923000
    5       -0.2263311800
    6        0.1999353900
    7       -0.0975135000
    8        0.0092825500
    9        0.0000925200
   10        0.0006390500
   11        0.1100675700
   12        0.0000000000
   13       -0.0000000000
   14       -0.0686881300
   15       -0.0000000000
   16        0.0000000000
   17        0.1457564200
   18        0.0000000000
   19       -0.0000000000
   20       -0.0567904700
   21       -0.0000000000
   22        0.0000000000
   23        0.6622406300
   24        0.6900467600
   25        0.6900467600
   26        0.0000000000
   27       -0.0000000000
   28        0.0000000000
   29        0.3204017300
   30        0.2633832900
   31        0.2633832900
   32        0.0000000000
   33       -0.0000000000
   34       -0.0000000000
 Ene=          0.00020849
 Spin= Alpha
 Occup=        0.00000000
    1       -1.8982519000
    2        0.3533120100
    3        0.1744232400
    4       -0.1337343500
    5        0.2420162000
    6       -0.1962508500
    7        0.0942592600
    8       -0.0091177800
    9       -0.0000307700
   10       -0.0006212300
   11       -1.0996580100
   12        0.0000000000
   13        0.0000000000
   14        0.3489810000
   15        0.0000000000
   16       -0.0000000000
   17       -0.2425734000
   18       -0.0000000000
   19        0.0000000000
   20        0.0950680300
   21        0.0000000000
   22       -0.0000000000
   23        0.5211269900
   24        0.4860656100
   25        0.4860656100
   26       -0.0000000000
   27        0.0000000000
   28        0.0000000000
   29        0.2400171600
   30        0.3122094500
   31        0.3122094500
   32        0.0000000000
   33        0.0000000000
   34        0.0000000000
 Ene=          0.00022544
 Spin= Alpha
 Occup=        0.00000000
    1       -0.0000000000
    2        0.0000000000
    3        0.0000000000
    4       -0.0000000000
    5        0.0000000000
    6       -0.0000000000
    7        0.0000000000
    8       -0.0000000000
    9        0.0000000000
   10       -0.0000000000
   11        0.0000000000
   12        1.1937472400
   13       -0.0441789500
   14        0.0000000000
   15       -0.3393964400
   16        0.0125606000
   17       -0.0000000000
   18        0.0963026400
   19       -0.0035640300
   20       -0.0000000000
   21       -0.0341357300
   22        0.0012633200
   23       -0.0000000000
   24        0.0000000000
   25        0.0000000000
   26       -0.0012282800
   27        0.0000454600
   28        0.0000000000
   29        0.0000000000
   30       -0.0000000000
   31       -0.0000000000
   32        0.0025981600
   33       -0.0000961500
   34        0.0000000000
 Ene=          0.00022544
 Spin= Alpha
 Occup=        0.00000000
    1        0.0000000000
    2       -0.0000000000
    3       -0.0000000000
    4        0.0000000000
    5       -0.0000000000
    6        0.0000000000
    7       -0.0000000000
    8        0.0000000000
    9       -0.0000000000
   10        0.0000000000
   11        0.0000000000
   12        0.0441789500
   13        1.1937472400
   14       -0.0000000000
   15       -0.0125606000
   16       -0.3393964400
   17        0.0000000000
   18        0.0035640300
   19        0.0963026400
   20       -0.0000000000
   21       -0.0012633200
   22       -0.0341357300
   23       -0.0000000000
   24       -0.0000000000
   25       -0.0000000000
   26       -0.0000454600
   27       -0.0012282800
   28        0.0000000000
   29       -0.0000000000
   30       -0.0000000000
   31       -0.0000000000
   32        0.0000961500
   33        0.0025981600
   34       -0.0000000000
 Ene=          0.00028858
 Spin= Alpha
 Occup=        0.00000000
    1        5.6889328900
    2       -1.2745390900
    3       -0.5139907700
    4        0.2224934700
    5       -0.4002595000
    6        0.3334392300
    7       -0.1605223800
    8        0.0155091900
    9        0.0000552200
   10        0.0010570800
   11       -0.4440561400
   12        0.0000000000
   13       -0.0000000000
   14        0.0847241200
   15       -0.0000000000
   16        0.0000000000
   17        0.1885377500
   18       -0.0000000000
   19       -0.0000000000
   20       -0.0773245500
   21        0.0000000000
   22        0.0000000000
   23       -1.3716290300
   24       -1.3199471200
   25       -1.3199471200
   26        0.0000000000
   27       -0.0000000000
   28       -0.0000000000
   29       -0.7301625800
   30       -0.8370425000
   31       -0.8370425000
   32       -0.0000000000
   33       -0.0000000000
   34       -0.0000000000
 Ene=          0.00033085
 Spin= Alpha
 Occup=        0.00000000
    1        0.0037659100
    2       -0.0006638000
    3       -0.0006635100
    4        0.0003838500
    5       -0.0004284000
    6        0.0003529700
    7       -0.0001753600
    8        0.0000160000
    9        0.0000004500
   10        0.0000011300
   11        0.0001595800
   12       -0.0000000000
   13        0.0000000000
   14       -0.0002611600
   15        0.0000000000
   16       -0.0000000000
   17        0.0001710700
   18       -0.0000000000
   19        0.0000000000
   20       -0.0001864200
   21        0.0000000000
   22       -0.0000000000
   23       -1.0989575300
   24        0.5482727200
   25        0.5482727600
   26        0.0000000000
   27       -0.0000000000
   28       -0.0000000000
   29        0.1787365600
   30       -0.0903071300
   31       -0.0903071400
   32       -0.0000000000
   33        0.0000000000
   34        0.0000000000
 Ene=          0.00033085
 Spin= Alpha
 Occup=        0.00000000
    1       -0.0000000000
    2        0.0000000000
    3        0.0000000000
    4       -0.0000000000
    5        0.0000000000
    6       -0.0000000000
    7        0.0000000000
    8       -0.0000000000
    9       -0.0000000000
   10       -0.0000000000
   11       -0.0000000000
   12       -0.0001454000
   13        0.0000359400
   14        0.0000000000
   15        0.0002096100
   16       -0.0000518100
   17       -0.0000000000
   18       -0.0001254400
   19        0.0000310100
   20        0.0000000000
   21        0.0001685000
   22       -0.0000416500
   23        0.0000000000
   24       -0.0000000000
   25        0.0000000000
   26        1.0660657400
   27       -0.2635245400
   28       -0.0000000000
   29       -0.0000000000
   30        0.0000000000
   31       -0.0000000000
   32       -0.1741214600
   33        0.0430417000
   34        0.0000000000
 Ene=          0.00033085
 Spin= Alpha
 Occup=        0.00000000
    1        0.0000000000
    2       -0.0000000000
    3       -0.0000000000
    4        0.0000000000
    5       -0.0000000000
    6        0.0000000000
    7       -0.0000000000
    8        0.0000000000
    9        0.0000000000
   10        0.0000000000
   11        0.0000000000
   12       -0.0000359400
   13       -0.0001454000
   14       -0.0000000000
   15        0.0000518100
   16        0.0002096100
   17        0.0000000000
   18       -0.0000310100
   19       -0.0001254400
   20       -0.0000000000
   21        0.0000416500
   22        0.0001685000
   23       -0.0000000000
   24        0.0000000000
   25       -0.0000000000
   26        0.2635245400
   27        1.0660657400
   28        0.0000000100
   29        0.0000000000
   30       -0.0000000000
   31        0.0000000000
   32       -0.0430417000
   33       -0.1741214600
   34       -0.0000000000
 Ene=          0.00033085
 Spin= Alpha
 Occup=        0.00000000
    1        0.0000000000
    2       -0.0000000000
    3       -0.0000000000
    4        0.0000000000
    5       -0.0000000000
    6        0.0000000000
    7       -0.0000000000
    8        0.0000000000
    9        0.0000000000
   10        0.0000000000
   11        0.0000000000
   12       -0.0000000000
   13        0.0000000000
   14       -0.0000000000
   15        0.0000000000
   16       -0.0000000000
   17        0.0000000000
   18       -0.0000000000
   19        0.0000000000
   20       -0.0000000000
   21        0.0000000000
   22       -0.0000000000
   23       -0.0000000200
   24        0.9293357100
   25       -0.9293356900
   26        0.0000000000
   27       -0.0000000000
   28       -0.2331473700
   29        0.0000000000
   30       -0.1517671000
   31        0.1517671000
   32       -0.0000000000
   33        0.0000000000
   34        0.0380746200
 Ene=          0.00033085
 Spin= Alpha
 Occup=        0.00000000
    1       -0.0000000000
    2        0.0000000000
    3        0.0000000000
    4       -0.0000000000
    5        0.0000000000
    6       -0.0000000000
    7        0.0000000000
    8       -0.0000000000
    9       -0.0000000000
   10       -0.0000000000
   11       -0.0000000000
   12        0.0000000000
   13       -0.0000000000
   14        0.0000000000
   15       -0.0000000000
   16        0.0000000000
   17       -0.0000000000
   18        0.0000000000
   19       -0.0000000000
   20        0.0000000000
   21       -0.0000000000
   22        0.0000000000
   23        0.0000000100
   24       -0.2019115500
   25        0.2019115400
   26       -0.0000000000
   27        0.0000000100
   28       -1.0731044300
   29       -0.0000000000
   30        0.0329735900
   31       -0.0329735800
   32        0.0000000000
   33       -0.0000000000
   34        0.1752455500
 Ene=          0.00070277
 Spin= Alpha
 Occup=        0.00000000
    1        8.4186222700
    2       -3.2260091500
    3       -0.6264770700
    4       -0.1031667000
    5        0.5546553100
    6       -0.4842133600
    7        0.2351953600
    8       -0.0222175600
    9       -0.0002733600
   10       -0.0015341900
   11        0.2796267600
   12        0.0000000000
   13       -0.0000000000
   14       -0.2484859700
   15       -0.0000000000
   16        0.0000000000
   17       -0.3803803000
   18       -0.0000000000
   19       -0.0000000000
   20        0.1869846000
   21        0.0000000000
   22        0.0000000000
   23       -1.4158237000
   24       -1.5753870300
   25       -1.5753870300
   26        0.0000000000
   27        0.0000000000
   28        0.0000000000
   29       -1.5748336000
   30       -1.2492933000
   31       -1.2492933000
   32       -0.0000000000
   33       -0.0000000000
   34       -0.0000000000
 Ene=          0.00098078
 Spin= Alpha
 Occup=        0.00000000
    1        4.5434896900
    2       -1.4527651300
    3       -0.3839349700
    4        0.1035917500
    5        0.0281625800
    6       -0.0593747000
    7        0.0315518000
    8       -0.0026785900
    9       -0.0001517300
   10       -0.0001976700
   11       -0.7891683100
   12       -0.0000000000
   13       -0.0000000000
   14        1.4852906200
   15        0.0000000000
   16        0.0000000000
   17       -0.2585700900
   18       -0.0000000000
   19       -0.0000000000
   20       -0.0627365000
   21       -0.0000000000
   22       -0.0000000000
   23       -0.7586311900
   24       -0.7508177300
   25       -0.7508177300
   26        0.0000000000
   27        0.0000000000
   28       -0.0000000000
   29       -0.9436044300
   30       -0.9592320900
   31       -0.9592320900
   32       -0.0000000000
   33       -0.0000000000
   34        0.0000000000
 Ene=          0.00098178
 Spin= Alpha
 Occup=        0.00000000
    1       -0.0000000000
    2        0.0000000000
    3        0.0000000000
    4       -0.0000000000
    5       -0.0000000000
    6        0.0000000000
    7       -0.0000000000
    8        0.0000000000
    9        0.0000000000
   10        0.0000000000
   11        0.0000000000
   12        0.6299265500
   13       -0.6047325900
   14       -0.0000000000
   15       -1.1893442000
   16        1.1417763000
   17        0.0000000000
   18        0.2157799800
   19       -0.2071498400
   20       -0.0000000000
   21        0.0435288800
   22       -0.0417879400
   23        0.0000000000
   24        0.0000000000
   25        0.0000000000
   26        0.0005885100
   27       -0.0005649700
   28       -0.0000000000
   29        0.0000000000
   30        0.0000000000
   31        0.0000000000
   32       -0.0010615400
   33        0.0010190900
   34       -0.0000000000
 Ene=          0.00098178
 Spin= Alpha
 Occup=        0.00000000
    1        0.0000000000
    2       -0.0000000000
    3       -0.0000000000
    4        0.0000000000
    5        0.0000000000
    6       -0.0000000000
    7        0.0000000000
    8       -0.0000000000
    9       -0.0000000000
   10       -0.0000000000
   11       -0.0000000000
   12        0.6047325900
   13        0.6299265500
   14        0.0000000000
   15       -1.1417763000
   16       -1.1893442000
   17       -0.0000000000
   18        0.2071498400
   19        0.2157799800
   20       -0.0000000000
   21        0.0417879400
   22        0.0435288800
   23       -0.0000000000
   24       -0.0000000000
   25       -0.0000000000
   26        0.0005649700
   27        0.0005885100
   28       -0.0000000000
   29       -0.0000000000
   30       -0.0000000000
   31       -0.0000000000
   32       -0.0010190900
   33       -0.0010615400
   34        0.0000000000
 Ene=          0.00120652
 Spin= Alpha
 Occup=        0.00000000
    1        3.7609402100
    2       -0.7825065100
    3       -0.4568889200
    4        0.1987635300
    5       -0.2150274000
    6        0.1530410400
    7       -0.0714180800
    8        0.0070272800
    9       -0.0000328300
   10        0.0004723200
   11        0.1668394600
   12        0.0000000000
   13       -0.0000000000
   14       -0.4113459100
   15       -0.0000000000
   16       -0.0000000000
   17        0.3050321700
   18        0.0000000000
   19        0.0000000000
   20       -0.0987085400
   21       -0.0000000000
   22       -0.0000000000
   23       -1.1589696200
   24       -0.3130075100
   25       -0.3130075100
   26       -0.0000000000
   27       -0.0000000000
   28       -0.0000000000
   29        0.2025228400
   30       -1.5259290700
   31       -1.5259290700
   32        0.0000000000
   33        0.0000000000
   34        0.0000000000
 Ene=          0.00124288
 Spin= Alpha
 Occup=        0.00000000
    1       -0.0000000000
    2        0.0000000000
    3        0.0000000000
    4       -0.0000000000
    5        0.0000000000
    6       -0.0000000000
    7        0.0000000000
    8       -0.0000000000
    9       -0.0000000000
   10       -0.0000000000
   11       -0.0000000000
   12        0.0094968200
   13       -0.0002876800
   14        0.0000000000
   15       -0.0336623400
   16        0.0010197000
   17       -0.0000000000
   18        0.0497392400
   19       -0.0015067000
   20        0.0000000000
   21       -0.0317643600
   22        0.0009622100
   23        0.0000000000
   24        0.0000000000
   25       -0.0000000000
   26       -0.6076227900
   27        0.0184060900
   28        0.0000000000
   29       -0.0000000000
   30        0.0000000000
   31        0.0000000000
   32        1.2414843300
   33       -0.0376070000
   34       -0.0000000000
 Ene=          0.00124288
 Spin= Alpha
 Occup=        0.00000000
    1        0.0000000000
    2       -0.0000000000
    3       -0.0000000000
    4        0.0000000000
    5       -0.0000000000
    6        0.0000000000
    7       -0.0000000000
    8        0.0000000000
    9       -0.0000000000
   10        0.0000000000
   11        0.0000000000
   12       -0.0002876800
   13       -0.0094968200
   14       -0.0000000000
   15        0.0010197000
   16        0.0336623400
   17        0.0000000000
   18       -0.0015067000
   19       -0.0497392400
   20       -0.0000000000
   21        0.0009622100
   22        0.0317643600
   23       -0.0000000000
   24       -0.0000000000
   25        0.0000000000
   26        0.0184060900
   27        0.6076227900
   28        0.0000000000
   29        0.0000000000
   30        0.0000000000
   31       -0.0000000000
   32       -0.0376070000
   33       -1.2414843300
   34       -0.0000000000
 Ene=          0.00125579
 Spin= Alpha
 Occup=        0.00000000
    1        0.0000000000
    2       -0.0000000000
    3       -0.0000000000
    4        0.0000000000
    5       -0.0000000000
    6        0.0000000000
    7       -0.0000000000
    8        0.0000000000
    9        0.0000000000
   10        0.0000000000
   11        0.0000000000
   12       -0.0000000000
   13       -0.0000000000
   14       -0.0000000000
   15        0.0000000000
   16        0.0000000000
   17        0.0000000000
   18       -0.0000000000
   19       -0.0000000000
   20       -0.0000000000
   21        0.0000000000
   22        0.0000000000
   23       -0.0000000000
   24        0.5218299300
   25       -0.5218299300
   26        0.0000000000
   27        0.0000000000
   28       -0.0818327500
   29        0.0000000000
   30       -1.0661503400
   31        1.0661503400
   32       -0.0000000000
   33       -0.0000000000
   34        0.1671924200
 Ene=          0.00125579
 Spin= Alpha
 Occup=        0.00000000
    1       -0.0000000000
    2        0.0000000000
    3        0.0000000000
    4       -0.0000000000
    5        0.0000000000
    6       -0.0000000000
    7        0.0000000000
    8       -0.0000000000
    9       -0.0000000000
   10       -0.0000000000
   11       -0.0000000000
   12       -0.0000000000
   13       -0.0000000000
   14        0.0000000000
   15        0.0000000000
   16        0.0000000000
   17       -0.0000000000
   18        0.0000000000
   19       -0.0000000000
   20        0.0000000000
   21       -0.0000000000
   22        0.0000000000
   23        0.0000000000
   24       -0.0708692400
   25        0.0708692400
   26       -0.0000000000
   27        0.0000000000
   28       -0.6025573000
   29       -0.0000000000
   30        0.1447928900
   31       -0.1447928900
   32        0.0000000000
   33       -0.0000000000
   34        1.2310843700
 Ene=          0.00159505
 Spin= Alpha
 Occup=        0.00000000
    1        9.2293556700
    2       -0.1499259700
    3       -1.8315589200
    4        0.5788360400
    5       -0.8035627100
    6        0.6273714800
    7       -0.2967756400
    8        0.0286535300
    9        0.0000600400
   10        0.0019464800
   11        0.3096295800
   12       -0.0000000000
   13        0.0000000000
   14       -0.8578231400
   15        0.0000000000
   16       -0.0000000000
   17        0.8840751100
   18       -0.0000000000
   19       -0.0000000000
   20       -0.2609832000
   21        0.0000000000
   22        0.0000000000
   23       -1.2043598700
   24       -1.4906544100
   25       -1.4906544100
   26        0.0000000000
   27        0.0000000000
   28        0.0000000000
   29       -3.2432861900
   30       -2.6583660800
   31       -2.6583660800
   32       -0.0000000000
   33       -0.0000000000
   34       -0.0000000000
 Ene=          0.00262379
 Spin= Alpha
 Occup=        0.00000000
    1        6.4600379500
    2        2.3465533900
    3       -2.9570535800
    4        0.1806294700
    5        0.1623920500
    6       -0.1230782900
    7        0.0597839200
    8       -0.0051890500
    9       -0.0002497100
   10       -0.0003767700
   11       -0.3920127800
   12        0.0000000000
   13       -0.0000000000
   14        1.1660882600
   15       -0.0000000000
   16        0.0000000000
   17       -1.5865714200
   18        0.0000000000
   19        0.0000000000
   20        0.5075477500
   21       -0.0000000000
   22       -0.0000000000
   23       -0.9732574900
   24       -0.9171328200
   25       -0.9171328200
   26        0.0000000000
   27       -0.0000000000
   28        0.0000000000
   29       -2.4685231400
   30       -2.5832584600
   31       -2.5832584600
   32       -0.0000000000
   33        0.0000000000
   34       -0.0000000000
 Ene=          0.00312976
 Spin= Alpha
 Occup=        0.00000000
    1       -0.0000000000
    2       -0.0000000000
    3        0.0000000000
    4       -0.0000000000
    5       -0.0000000000
    6       -0.0000000000
    7        0.0000000000
    8       -0.0000000000
    9        0.0000000000
   10       -0.0000000000
   11       -0.0000000000
   12       -0.0263388600
   13       -0.4814522500
   14        0.0000000000
   15        0.0783308100
   16        1.4318213500
   17       -0.0000000000
   18       -0.1108128700
   19       -2.0255662100
   20        0.0000000000
   21        0.0337673000
   22        0.6172379400
   23       -0.0000000000
   24        0.0000000000
   25        0.0000000000
   26       -0.0005796100
   27       -0.0105947700
   28       -0.0000000000
   29        0.0000000000
   30        0.0000000000
   31        0.0000000000
   32        0.0011858100
   33        0.0216756800
   34        0.0000000000
 Ene=          0.00312976
 Spin= Alpha
 Occup=        0.00000000
    1        0.0000000000
    2        0.0000000000
    3       -0.0000000000
    4        0.0000000000
    5        0.0000000000
    6       -0.0000000000
    7        0.0000000000
    8       -0.0000000000
    9       -0.0000000000
   10       -0.0000000000
   11        0.0000000000
   12       -0.4814522500
   13        0.0263388600
   14        0.0000000000
   15        1.4318213500
   16       -0.0783308100
   17       -0.0000000000
   18       -2.0255662100
   19        0.1108128700
   20        0.0000000000
   21        0.6172379400
   22       -0.0337673000
   23       -0.0000000000
   24       -0.0000000000
   25       -0.0000000000
   26       -0.0105947700
   27        0.0005796100
   28       -0.0000000000
   29       -0.0000000000
   30       -0.0000000000
   31       -0.0000000000
   32        0.0216756800
   33       -0.0011858100
   34        0.0000000000
 Ene=          0.00472771
 Spin= Alpha
 Occup=        0.00000000
    1       -6.7568903300
    2       -5.0142076700
    3        6.4348250200
    4       -1.3485807900
    5       -0.5991916100
    6        0.7418434700
    7       -0.3690086800
    8        0.0314247900
    9        0.0015786200
   10        0.0022902400
   11       -0.1673804600
   12       -0.0000000000
   13        0.0000000000
   14        0.4959434000
   15        0.0000000000
   16       -0.0000000000
   17       -0.7569224300
   18       -0.0000000000
   19        0.0000000000
   20        0.2393642300
   21        0.0000000000
   22       -0.0000000000
   23        0.9754592600
   24        0.9544434600
   25        0.9544434600
   26        0.0000000000
   27        0.0000000000
   28       -0.0000000000
   29        3.0779151100
   30        3.1208102400
   31        3.1208102400
   32       -0.0000000000
   33       -0.0000000000
   34        0.0000000000
 Ene=          0.01274480
 Spin= Alpha
 Occup=        0.00000000
    1        4.6135952500
    2        4.6405099700
    3       -7.3368201700
    4        5.8537533300
    5       -4.2760211600
    6        2.5041993200
    7       -1.0535492100
    8        0.0989831800
    9       -0.0002570700
   10        0.0066203000
   11       -0.0457934200
   12       -0.0000000000
   13       -0.0000000000
   14        0.1303773500
   15        0.0000000000