[Molden Format]
[Title]
 Molden2AIM, Version 3.1.0 (02/25/2015)           Time: Mon Nov 25 15:23:44 2024

[Atoms] AU
BE       1       4     0.00000000     0.00000000     0.00000000
[GTO]
    1 0
 S   6 1.0
    0.1682800000D+04      0.2285740532D-02
    0.2517150000D+03      0.1759380410D-01
    0.5741160000D+02      0.8633152009D-01
    0.1651710000D+02      0.2818350656D+00
    0.4853640000D+01      0.6405941491D+00
    0.6268630000D+00      0.1444670336D+00
 S   3 1.0
    0.8309380000D+01      0.1086210323D+00
    0.1740750000D+01      0.9273012759D+00
    0.4858160000D+00     -0.2971690884D-02
 P   3 1.0
    0.8309380000D+01      0.3613440323D-01
    0.1740750000D+01      0.2169580194D+00
    0.4858160000D+00      0.8418390753D+00
 S   1 1.0
    0.1636130000D+00      0.1000000000D+01
 P   1 1.0
    0.1636130000D+00      0.1000000000D+01
 S   1 1.0
    0.5672850000D-01      0.1000000000D+01
 P   1 1.0
    0.5672850000D-01      0.1000000000D+01
 S   1 1.0
    0.2070000000D-01      0.1000000000D+01
 P   1 1.0
    0.2070000000D-01      0.1000000000D+01
 D   1 1.0
    0.2550000000D+00      0.1000000000D+01


[MO]
 Ene=         -4.73235000
 Spin= Alpha
 Occup=        2.00000000
    1        0.5962802000
    2        0.4464431200
    3        0.0000000000
    4        0.0000000000
    5       -0.0000000000
    6       -0.0048892600
    7        0.0000000000
    8       -0.0000000000
    9        0.0000000000
   10        0.0014251800
   11        0.0000000000
   12        0.0000000000
   13        0.0000000000
   14       -0.0004289200
   15        0.0000000000
   16       -0.0000000000
   17       -0.0000000000
   18        0.0006709100
   19        0.0006709100
   20        0.0006709100
   21       -0.0000000000
   22       -0.0000000000
   23       -0.0000000000
 Ene=         -0.30925800
 Spin= Alpha
 Occup=        2.00000000
    1        0.1095860000
    2        0.1856938200
    3       -0.0000000000
    4        0.0000000000
    5        0.0000000000
    6       -0.5839996200
    7       -0.0000000000
    8        0.0000000000
    9       -0.0000000000
   10       -0.5001285100
   11       -0.0000000000
   12        0.0000000000
   13        0.0000000000
   14       -0.0223473000
   15       -0.0000000000
   16        0.0000000000
   17       -0.0000000000
   18        0.0017724700
   19        0.0017724700
   20        0.0017724700
   21        0.0000000000
   22       -0.0000000000
   23       -0.0000000000
 Ene=          0.02956570
 Spin= Alpha
 Occup=        0.00000000
    1        0.0000000000
    2        0.0000000000
    3       -0.0014723000
    4       -0.0000211800
    5        0.0759588400
    6        0.0000000000
    7       -0.0038642300
    8       -0.0000555800
    9        0.1993639600
   10       -0.0000000000
   11       -0.0000388200
   12       -0.0000005600
   13        0.0020029400
   14        0.0000000000
   15       -0.0174002300
   16       -0.0002502900
   17        0.8977146300
   18        0.0000000000
   19        0.0000000000
   20        0.0000000000
   21        0.0000000000
   22       -0.0000000000
   23        0.0000000000
 Ene=          0.02956570
 Spin= Alpha
 Occup=        0.00000000
    1        0.0000000000
    2       -0.0000000000
    3       -0.0043657700
    4       -0.0758474900
    5       -0.0001057700
    6       -0.0000000000
    7       -0.0114585300
    8       -0.1990717200
    9       -0.0002776000
   10        0.0000000000
   11       -0.0001151200
   12       -0.0020000000
   13       -0.0000027900
   14       -0.0000000000
   15       -0.0515965300
   16       -0.8963987000
   17       -0.0012500100
   18        0.0000000000
   19       -0.0000000000
   20       -0.0000000000
   21       -0.0000000000
   22       -0.0000000000
   23       -0.0000000000
 Ene=          0.02956570
 Spin= Alpha
 Occup=        0.00000000
    1        0.0000000000
    2        0.0000000000
    3        0.0758332700
    4       -0.0043670000
    5        0.0014686400
    6        0.0000000000
    7        0.1990344000
    8       -0.0114617600
    9        0.0038546500
   10       -0.0000000000
   11        0.0019996300
   12       -0.0001151500
   13        0.0000387300
   14        0.0000000000
   15        0.8962306700
   16       -0.0516110600
   17        0.0173570800
   18        0.0000000000
   19       -0.0000000000
   20        0.0000000000
   21       -0.0000000000
   22       -0.0000000000
   23        0.0000000000
 Ene=          0.05109620
 Spin= Alpha
 Occup=        0.00000000
    1        0.0307078000
    2        0.0667706800
    3        0.0000000000
    4       -0.0000000000
    5       -0.0000000000
    6       -0.0123773600
    7        0.0000000000
    8       -0.0000000000
    9       -0.0000000000
   10       -1.4855206400
   11       -0.0000000000
   12        0.0000000000
   13       -0.0000000000
   14        1.8493686000
   15        0.0000000000
   16       -0.0000000000
   17       -0.0000000000
   18        0.0491326700
   19        0.0491326700
   20        0.0491326700
   21        0.0000000000
   22       -0.0000000000
   23       -0.0000000000
 Ene=          0.09802860
 Spin= Alpha
 Occup=        0.00000000
    1        0.0000000000
    2        0.0000000000
    3        0.0033226500
    4       -0.0040081300
    5        0.1736379500
    6       -0.0000000000
    7        0.0017539000
    8       -0.0021157300
    9        0.0916565900
   10       -0.0000000000
   11        0.0238002900
   12       -0.0287104400
   13        1.2437761400
   14        0.0000000000
   15       -0.0222326300
   16        0.0268193600
   17       -1.1618520900
   18        0.0000000000
   19       -0.0000000000
   20       -0.0000000000
   21       -0.0000000000
   22        0.0000000000
   23       -0.0000000000
 Ene=          0.09802860
 Spin= Alpha
 Occup=        0.00000000
    1        0.0000000000
    2        0.0000000000
    3       -0.0479713900
    4       -0.1669352300
    5       -0.0029354600
    6       -0.0000000000
    7       -0.0253221900
    8       -0.0881184900
    9       -0.0015495100
   10        0.0000000000
   11       -0.3436211200
   12       -1.1957642900
   13       -0.0210268000
   14       -0.0000000000
   15        0.3209877600
   16        1.1170026500
   17        0.0196418200
   18       -0.0000000000
   19        0.0000000000
   20        0.0000000000
   21        0.0000000000
   22        0.0000000000
   23       -0.0000000000
 Ene=          0.09802860
 Spin= Alpha
 Occup=        0.00000000
    1        0.0000000000
    2        0.0000000000
    3       -0.1669279700
    4        0.0478936900
    5        0.0042998000
    6       -0.0000000000
    7       -0.0881146600
    8        0.0252811800
    9        0.0022696900
   10       -0.0000000000
   11       -1.1957123000
   12        0.3430645900
   13        0.0307996200
   14        0.0000000000
   15        1.1169540800
   16       -0.3204678900
   17       -0.0287709400
   18       -0.0000000000
   19        0.0000000000
   20       -0.0000000000
   21       -0.0000000000
   22       -0.0000000000
   23       -0.0000000000
 Ene=          0.32120500
 Spin= Alpha
 Occup=        0.00000000
    1       -0.1008201700
    2       -0.1206836400
    3       -0.0000000000
    4        0.0000000000
    5        0.0000000000
    6        1.7831282900
    7       -0.0000000000
    8        0.0000000000
    9        0.0000000000
   10       -3.2683135200
   11        0.0000000000
   12       -0.0000000000
   13       -0.0000000000
   14        1.3222167900
   15       -0.0000000000
   16        0.0000000000
   17        0.0000000000
   18        0.2606109800
   19        0.2606109800
   20        0.2606109800
   21        0.0000000000
   22       -0.0000000000
   23       -0.0000000000
 Ene=          0.34580500
 Spin= Alpha
 Occup=        0.00000000
    1       -0.0000000000
    2       -0.0000000000
    3       -0.0049970100
    4       -0.0005943100
    5       -0.1920697500
    6        0.0000000000
    7       -0.0345447500
    8       -0.0041084800
    9       -1.3277940200
   10       -0.0000000000
   11        0.0469407100
   12        0.0055827600
   13        1.8042565700
   14        0.0000000000
   15       -0.0195178100
   16       -0.0023212900
   17       -0.7502044500
   18        0.0000000000
   19        0.0000000000
   20        0.0000000000
   21        0.0000000000
   22        0.0000000000
   23       -0.0000000000
 Ene=          0.34580500
 Spin= Alpha
 Occup=        0.00000000
    1        0.0000000000
    2        0.0000000000
    3       -0.0504821700
    4        0.1853837000
    5        0.0007397600
    6       -0.0000000000
    7       -0.3489874100
    8        1.2815727900
    9        0.0051140200
   10        0.0000000000
   11        0.4742172400
   12       -1.7414494200
   13       -0.0069491200
   14       -0.0000000000
   15       -0.1971781000
   16        0.7240894300
   17        0.0028894300
   18       -0.0000000000
   19       -0.0000000000
   20       -0.0000000000
   21        0.0000000000
   22       -0.0000000000
   23       -0.0000000000
 Ene=          0.34580500
 Spin= Alpha
 Occup=        0.00000000
    1       -0.0000000000
    2       -0.0000000000
    3        0.1853178200
    4        0.0504840900
    5       -0.0049775600
    6        0.0000000000
    7        1.2811173300
    8        0.3490006900
    9       -0.0344102600
   10       -0.0000000000
   11       -1.7408305300
   12       -0.4742353000
   13        0.0467579600
   14        0.0000000000
   15        0.7238320900
   16        0.1971856100
   17       -0.0194418200
   18        0.0000000000
   19       -0.0000000000
   20        0.0000000000
   21        0.0000000000
   22        0.0000000000
   23       -0.0000000000
 Ene=          0.69285100
 Spin= Alpha
 Occup=        0.00000000
    1       -0.0000000000
    2       -0.0000000000
    3        0.0000000000
    4       -0.0000000000
    5       -0.0000000000
    6        0.0000000000
    7        0.0000000000
    8        0.0000000000
    9       -0.0000000000
   10       -0.0000000000
   11       -0.0000000000
   12       -0.0000000000
   13        0.0000000000
   14        0.0000000000
   15       -0.0000000000
   16        0.0000000000
   17       -0.0000000000
   18        0.0246925400
   19        0.0734298000
   20       -0.0981223400
   21       -0.1898450200
   22        0.1097681600
   23        0.9703041000
 Ene=          0.69285100
 Spin= Alpha
 Occup=        0.00000000
    1       -0.0000000000
    2       -0.0000000000
    3        0.0000000000
    4        0.0000000000
    5       -0.0000000000
    6        0.0000000000
    7       -0.0000000000
    8       -0.0000000000
    9        0.0000000000
   10        0.0000000000
   11        0.0000000000
   12        0.0000000000
   13       -0.0000000000
   14        0.0000000000
   15       -0.0000000000
   16       -0.0000000000
   17        0.0000000000
   18        0.2461426600
   19        0.7107232700
   20       -0.9568659300
   21       -0.0047731700
   22        0.0261239900
   23       -0.1084310900
 Ene=          0.69285100
 Spin= Alpha
 Occup=        0.00000000
    1        0.0000000000
    2        0.0000000000
    3        0.0000000000
    4       -0.0000000000
    5       -0.0000000000
    6       -0.0000000000
    7       -0.0000000000
    8        0.0000000000
    9        0.0000000000
   10        0.0000000000
   11       -0.0000000000
   12       -0.0000000000
   13       -0.0000000000
   14       -0.0000000000
   15       -0.0000000000
   16        0.0000000000
   17        0.0000000000
   18        0.0339911700
   19       -0.0461795400
   20        0.0121883700
   21       -0.9809364900
   22       -0.0295844500
   23       -0.1860036300
 Ene=          0.69285100
 Spin= Alpha
 Occup=        0.00000000
    1       -0.0000000000
    2       -0.0000000000
    3       -0.0000000000
    4       -0.0000000000
    5        0.0000000000
    6        0.0000000000
    7        0.0000000000
    8        0.0000000000
    9       -0.0000000000
   10        0.0000000000
   11       -0.0000000000
   12       -0.0000000000
   13        0.0000000000
   14       -0.0000000000
   15        0.0000000000
   16        0.0000000000
   17       -0.0000000000
   18       -0.0449873800
   19        0.0664429300
   20       -0.0214555500
   21        0.0058805600
   22       -0.9916750800
   23        0.1093009900
 Ene=          0.69285100
 Spin= Alpha
 Occup=        0.00000000
    1       -0.0000000000
    2        0.0000000000
    3        0.0000000000
    4       -0.0000000000
    5       -0.0000000000
    6        0.0000000000
    7        0.0000000000
    8       -0.0000000000
    9        0.0000000000
   10       -0.0000000000
   11        0.0000000000
   12        0.0000000000
   13       -0.0000000000
   14        0.0000000000
   15       -0.0000000000
   16       -0.0000000000
   17       -0.0000000000
   18       -0.9672770100
   19        0.6949340200
   20        0.2723429900
   21       -0.0408056500
   22        0.0545324000
   23       -0.0144424900
 Ene=          1.19879000
 Spin= Alpha
 Occup=        0.00000000
    1       -0.0000000000
    2        0.0000000000
    3        0.0575732100
    4       -0.0323034800
    5        1.4113501400
    6        0.0000000000
    7       -0.0702670400
    8        0.0394258000
    9       -1.7225267700
   10       -0.0000000000
   11        0.0432771500
   12       -0.0242821700
   13        1.0608963400
   14        0.0000000000
   15       -0.0150204100
   16        0.0084277300
   17       -0.3682105700
   18        0.0000000000
   19        0.0000000000
   20        0.0000000000
   21       -0.0000000000
   22        0.0000000000
   23        0.0000000000
 Ene=          1.19879000
 Spin= Alpha
 Occup=        0.00000000
    1       -0.0000000000
    2        0.0000000000
    3       -0.0254392800
    4        1.4122702300
    5        0.0333622800
    6       -0.0000000000
    7        0.0310481700
    8       -1.7236497300
    9       -0.0407180500
   10        0.0000000000
   11       -0.0191224300
   12        1.0615879600
   13        0.0250780600
   14       -0.0000000000
   15        0.0066369200
   16       -0.3684506200
   17       -0.0087039700
   18       -0.0000000000
   19        0.0000000000
   20       -0.0000000000
   21       -0.0000000000
   22       -0.0000000000
   23        0.0000000000
 Ene=          1.19879000
 Spin= Alpha
 Occup=        0.00000000
    1        0.0000000000
    2        0.0000000000
    3        1.4114905500
    4        0.0267709600
    5       -0.0569661900
    6       -0.0000000000
    7       -1.7226981400
    8       -0.0326734600
    9        0.0695261900
   10       -0.0000000000
   11        1.0610018800
   12        0.0201234300
   13       -0.0428208600
   14       -0.0000000000
   15       -0.3682472100
   16       -0.0069843400
   17        0.0148620500
   18        0.0000000000
   19       -0.0000000000
   20        0.0000000000
   21        0.0000000000
   22       -0.0000000000
   23       -0.0000000000
 Ene=          1.41474000
 Spin= Alpha
 Occup=        0.00000000
    1        0.1662730500
    2        0.7329297200
    3       -0.0000000000
    4        0.0000000000
    5       -0.0000000000
    6       -2.9007812900
    7        0.0000000000
    8        0.0000000000
    9        0.0000000000
   10       -1.4063145600
   11       -0.0000000000
   12        0.0000000000
   13       -0.0000000000
   14        0.4975681300
   15       -0.0000000000
   16        0.0000000000
   17        0.0000000000
   18        1.6779525900
   19        1.6779525900
   20        1.6779525900
   21        0.0000000000
   22       -0.0000000000
   23        0.0000000000
 Ene=         10.06660000
 Spin= Alpha
 Occup=        0.00000000
    1       -1.9197775700
    2        2.5708991400
    3        0.0000000000
    4       -0.0000000000
    5       -0.0000000000
    6       -2.0284875200
    7        0.0000000000
    8       -0.0000000000
    9        0.0000000000
   10       -0.3771729500
   11        0.0000000000
   12       -0.0000000000
   13       -0.0000000000
   14        0.1489960700
   15        0.0000000000
   16       -0.0000000000
   17        0.0000000000
   18        0.8743518600
   19        0.8743518600
   20        0.8743518600
   21       -0.0000000000
   22        0.0000000000
   23       -0.0000000000

