 Molden2AIM, Version 3.1.0 (02/25/2015)           Time: Mon Nov 25 15:23:44 2024
GAUSSIAN             23 MOL ORBITALS     36 PRIMITIVES        1 NUCLEI
  Be   1    (CENTRE  1)   0.00000000  0.00000000  0.00000000  CHARGE =  4.0
CENTRE ASSIGNMENTS    1  1  1  1  1  1  1  1  1  1  1  1  1  1  1  1  1  1  1  1
CENTRE ASSIGNMENTS    1  1  1  1  1  1  1  1  1  1  1  1  1  1  1  1
TYPE ASSIGNMENTS      1  1  1  1  1  1  1  1  1  2  2  2  3  3  3  4  4  4  1  2
TYPE ASSIGNMENTS      3  4  1  2  3  4  1  2  3  4  5  6  7  8  9 10
EXPONENTS  0.1682800D+04 0.2517150D+03 0.5741160D+02 0.1651710D+02 0.4853640D+01
EXPONENTS  0.6268630D+00 0.8309380D+01 0.1740750D+01 0.4858160D+00 0.8309380D+01
EXPONENTS  0.1740750D+01 0.4858160D+00 0.8309380D+01 0.1740750D+01 0.4858160D+00
EXPONENTS  0.8309380D+01 0.1740750D+01 0.4858160D+00 0.1636130D+00 0.1636130D+00
EXPONENTS  0.1636130D+00 0.1636130D+00 0.5672850D-01 0.5672850D-01 0.5672850D-01
EXPONENTS  0.5672850D-01 0.2070000D-01 0.2070000D-01 0.2070000D-01 0.2070000D-01
EXPONENTS  0.2550000D+00 0.2550000D+00 0.2550000D+00 0.2550000D+00 0.2550000D+00
EXPONENTS  0.2550000D+00
MO    1     MO 0.0        OCC NO =    2.0000000  ORB. ENERGY =   -4.732350
  0.25521829D+00  0.47250026D+00  0.76520818D+00  0.98130917D+00  0.89021338D+00
  0.43252251D-01  0.16914790D+00  0.44714604D+00 -0.55021664D-03  0.00000000D+00
  0.00000000D+00  0.00000000D+00  0.00000000D+00  0.00000000D+00  0.00000000D+00
 -0.00000000D+00 -0.00000000D+00 -0.00000000D+00 -0.89643041D-03  0.00000000D+00
 -0.00000000D+00  0.00000000D+00  0.11806761D-03  0.00000000D+00  0.00000000D+00
  0.00000000D+00 -0.16682616D-04  0.00000000D+00 -0.00000000D+00 -0.00000000D+00
  0.10104598D-03  0.10104598D-03  0.10104598D-03 -0.00000000D+00 -0.00000000D+00
 -0.00000000D+00
MO    2     MO 0.0        OCC NO =    2.0000000  ORB. ENERGY =   -0.309258
  0.46904712D-01  0.86837386D-01  0.14063205D+00  0.18034767D+00  0.16360584D+00
  0.79490165D-02  0.70355481D-01  0.18598619D+00 -0.22885744D-03 -0.00000000D+00
 -0.00000000D+00 -0.00000000D+00  0.00000000D+00  0.00000000D+00  0.00000000D+00
  0.00000000D+00  0.00000000D+00  0.00000000D+00 -0.10707449D+00 -0.00000000D+00
  0.00000000D+00 -0.00000000D+00 -0.41432647D-01 -0.00000000D+00  0.00000000D+00
  0.00000000D+00 -0.86918638D-03 -0.00000000D+00  0.00000000D+00 -0.00000000D+00
  0.26695230D-03  0.26695230D-03  0.26695230D-03  0.00000000D+00 -0.00000000D+00
 -0.00000000D+00
MO    3     MO 0.0        OCC NO =    0.0000000  ORB. ENERGY =    0.029566
  0.00000000D+00  0.00000000D+00  0.00000000D+00  0.00000000D+00  0.00000000D+00
  0.00000000D+00  0.00000000D+00  0.00000000D+00 -0.00000000D+00 -0.10698381D-02
 -0.91040076D-03 -0.71656443D-03 -0.15390322D-04 -0.13096711D-04 -0.10308249D-04
  0.55195043D-01  0.46969358D-01  0.36968962D-01  0.00000000D+00 -0.57315926D-03
 -0.82438654D-05  0.29570523D-01 -0.00000000D+00 -0.15319594D-05 -0.22099362D-07
  0.79042315D-04  0.00000000D+00 -0.19474127D-03 -0.28012155D-05  0.10047114D-01
  0.00000000D+00  0.00000000D+00  0.00000000D+00  0.00000000D+00 -0.00000000D+00
  0.00000000D+00
MO    4     MO 0.0        OCC NO =    0.0000000  ORB. ENERGY =    0.029566
  0.00000000D+00  0.00000000D+00  0.00000000D+00  0.00000000D+00  0.00000000D+00
  0.00000000D+00 -0.00000000D+00 -0.00000000D+00  0.00000000D+00 -0.31723610D-02
 -0.26995859D-02 -0.21248085D-02 -0.55114131D-01 -0.46900504D-01 -0.36914768D-01
 -0.76857146D-04 -0.65403171D-04 -0.51477973D-04 -0.00000000D+00 -0.16995786D-02
 -0.29527176D-01 -0.41174830D-04  0.00000000D+00 -0.45429975D-05 -0.78926294D-04
 -0.11010218D-06 -0.00000000D+00 -0.57746214D-03 -0.10032386D-01 -0.13989961D-04
  0.00000000D+00 -0.00000000D+00 -0.00000000D+00 -0.00000000D+00 -0.00000000D+00
 -0.00000000D+00
MO    5     MO 0.0        OCC NO =    0.0000000  ORB. ENERGY =    0.029566
  0.00000000D+00  0.00000000D+00  0.00000000D+00  0.00000000D+00  0.00000000D+00
  0.00000000D+00  0.00000000D+00  0.00000000D+00 -0.00000000D+00  0.55103798D-01
  0.46891711D-01  0.36907848D-01 -0.31732548D-02 -0.27003465D-02 -0.21254071D-02
  0.10671786D-02  0.90813759D-03  0.71478312D-03  0.00000000D+00  0.29521641D-01
 -0.17000577D-02  0.57173832D-03 -0.00000000D+00  0.78911692D-04 -0.45441814D-05
  0.15284077D-05  0.00000000D+00  0.10030506D-01 -0.57762476D-03  0.19425835D-03
  0.00000000D+00 -0.00000000D+00  0.00000000D+00 -0.00000000D+00 -0.00000000D+00
  0.00000000D+00
MO    6     MO 0.0        OCC NO =    0.0000000  ORB. ENERGY =    0.051096
  0.13143472D-01  0.24333264D-01  0.39407413D-01  0.50536385D-01  0.45845048D-01
  0.22274452D-02  0.25298005D-01  0.66875809D-01 -0.82291198D-04  0.00000000D+00
  0.00000000D+00  0.00000000D+00 -0.00000000D+00 -0.00000000D+00 -0.00000000D+00
 -0.00000000D+00 -0.00000000D+00 -0.00000000D+00 -0.22693499D-02  0.00000000D+00
 -0.00000000D+00 -0.00000000D+00 -0.12306647D+00 -0.00000000D+00  0.00000000D+00
 -0.00000000D+00  0.71930210D-01  0.00000000D+00 -0.00000000D+00 -0.00000000D+00
  0.73998878D-02  0.73998878D-02  0.73998878D-02  0.00000000D+00 -0.00000000D+00
 -0.00000000D+00
MO    7     MO 0.0        OCC NO =    0.0000000  ORB. ENERGY =    0.098029
  0.00000000D+00  0.00000000D+00  0.00000000D+00  0.00000000D+00  0.00000000D+00
  0.00000000D+00  0.00000000D+00  0.00000000D+00 -0.00000000D+00  0.24143840D-02
  0.20545698D-02  0.16171248D-02 -0.29124840D-02 -0.24784382D-02 -0.19507460D-02
  0.12617299D+00  0.10736950D+00  0.84509121D-01 -0.00000000D+00  0.26014601D-03
 -0.31381420D-03  0.13594901D-01 -0.00000000D+00  0.93923434D-03 -0.11330043D-02
  0.49083320D-01  0.00000000D+00 -0.24882491D-03  0.30015904D-03 -0.13003308D-01
  0.00000000D+00 -0.00000000D+00 -0.00000000D+00 -0.00000000D+00  0.00000000D+00
 -0.00000000D+00
MO    8     MO 0.0        OCC NO =    0.0000000  ORB. ENERGY =    0.098029
  0.00000000D+00  0.00000000D+00  0.00000000D+00  0.00000000D+00  0.00000000D+00
  0.00000000D+00  0.00000000D+00  0.00000000D+00 -0.00000000D+00 -0.34858127D-01
 -0.29663241D-01 -0.23347546D-01 -0.12130250D+00 -0.10322486D+00 -0.81246925D-01
 -0.21330347D-02 -0.18151498D-02 -0.14286805D-02 -0.00000000D+00 -0.37558965D-02
 -0.13070115D-01 -0.22983001D-03  0.00000000D+00 -0.13560371D-01 -0.47188622D-01
 -0.82978370D-03 -0.00000000D+00  0.35924563D-02  0.12501359D-01  0.21982888D-03
 -0.00000000D+00  0.00000000D+00  0.00000000D+00  0.00000000D+00  0.00000000D+00
 -0.00000000D+00
MO    9     MO 0.0        OCC NO =    0.0000000  ORB. ENERGY =    0.098029
  0.00000000D+00  0.00000000D+00  0.00000000D+00  0.00000000D+00  0.00000000D+00
  0.00000000D+00  0.00000000D+00  0.00000000D+00 -0.00000000D+00 -0.12129722D+00
 -0.10322037D+00 -0.81243392D-01  0.34801667D-01  0.29615195D-01  0.23309730D-01
  0.31244243D-02  0.26587932D-02  0.20927010D-02 -0.00000000D+00 -0.13069546D-01
  0.37498137D-02  0.33665021D-03 -0.00000000D+00 -0.47186570D-01  0.13538408D-01
  0.12154499D-02  0.00000000D+00  0.12500815D-01 -0.35866380D-02 -0.32200089D-03
 -0.00000000D+00  0.00000000D+00 -0.00000000D+00 -0.00000000D+00 -0.00000000D+00
 -0.00000000D+00
MO   10     MO 0.0        OCC NO =    0.0000000  ORB. ENERGY =    0.321205
 -0.43152785D-01 -0.79891227D-01 -0.12938283D+00 -0.16592159D+00 -0.15051894D+00
 -0.73131714D-02 -0.45724491D-01 -0.12087365D+00  0.14873596D-03 -0.00000000D+00
 -0.00000000D+00 -0.00000000D+00  0.00000000D+00  0.00000000D+00  0.00000000D+00
  0.00000000D+00  0.00000000D+00  0.00000000D+00  0.32693095D+00 -0.00000000D+00
  0.00000000D+00  0.00000000D+00 -0.27076017D+00  0.00000000D+00 -0.00000000D+00
 -0.00000000D+00  0.51426920D-01 -0.00000000D+00  0.00000000D+00  0.00000000D+00
  0.39250707D-01  0.39250707D-01  0.39250707D-01  0.00000000D+00 -0.00000000D+00
 -0.00000000D+00
MO   11     MO 0.0        OCC NO =    0.0000000  ORB. ENERGY =    0.345805
 -0.00000000D+00 -0.00000000D+00 -0.00000000D+00 -0.00000000D+00 -0.00000000D+00
 -0.00000000D+00 -0.00000000D+00 -0.00000000D+00  0.00000000D+00 -0.36310478D-02
 -0.30899149D-02 -0.24320313D-02 -0.43185185D-03 -0.36749323D-03 -0.28924907D-03
 -0.13956635D+00 -0.11876686D+00 -0.93479828D-01  0.00000000D+00 -0.51238263D-02
 -0.60938748D-03 -0.19694414D+00 -0.00000000D+00  0.18524281D-02  0.22031328D-03
  0.71201642D-01  0.00000000D+00 -0.21844097D-03 -0.25979598D-04 -0.83961977D-02
  0.00000000D+00  0.00000000D+00  0.00000000D+00  0.00000000D+00  0.00000000D+00
 -0.00000000D+00
MO   12     MO 0.0        OCC NO =    0.0000000  ORB. ENERGY =    0.345805
  0.00000000D+00  0.00000000D+00  0.00000000D+00  0.00000000D+00  0.00000000D+00
  0.00000000D+00  0.00000000D+00  0.00000000D+00 -0.00000000D+00 -0.36682571D-01
 -0.31215789D-01 -0.24569536D-01  0.13470797D+00  0.11463252D+00  0.90225746D-01
  0.53754224D-03  0.45743263D-03  0.36003919D-03 -0.00000000D+00 -0.51763318D-01
  0.19008840D+00  0.75853351D-03  0.00000000D+00  0.18714105D-01 -0.68723074D-01
 -0.27423414D-03 -0.00000000D+00 -0.22067935D-02  0.81039215D-02  0.32338152D-04
 -0.00000000D+00 -0.00000000D+00 -0.00000000D+00  0.00000000D+00 -0.00000000D+00
 -0.00000000D+00
MO   13     MO 0.0        OCC NO =    0.0000000  ORB. ENERGY =    0.345805
 -0.00000000D+00 -0.00000000D+00 -0.00000000D+00 -0.00000000D+00 -0.00000000D+00
 -0.00000000D+00 -0.00000000D+00 -0.00000000D+00  0.00000000D+00  0.13466010D+00
  0.11459178D+00  0.90193682D-01  0.36683966D-01  0.31216976D-01  0.24570470D-01
 -0.36169146D-02 -0.30778879D-02 -0.24225650D-02  0.00000000D+00  0.19002085D+00
  0.51765288D-01 -0.51038782D-02 -0.00000000D+00 -0.68698651D-01 -0.18714817D-01
  0.18452162D-02  0.00000000D+00  0.81010414D-02  0.22068776D-02 -0.21759050D-03
  0.00000000D+00 -0.00000000D+00  0.00000000D+00  0.00000000D+00  0.00000000D+00
 -0.00000000D+00
MO   14     MO 0.0        OCC NO =    0.0000000  ORB. ENERGY =    0.692851
 -0.00000000D+00 -0.00000000D+00 -0.00000000D+00 -0.00000000D+00 -0.00000000D+00
 -0.00000000D+00 -0.00000000D+00 -0.00000000D+00  0.00000000D+00  0.00000000D+00
  0.00000000D+00  0.00000000D+00 -0.00000000D+00 -0.00000000D+00 -0.00000000D+00
 -0.00000000D+00 -0.00000000D+00 -0.00000000D+00  0.00000000D+00  0.00000000D+00
  0.00000000D+00 -0.00000000D+00 -0.00000000D+00 -0.00000000D+00 -0.00000000D+00
  0.00000000D+00  0.00000000D+00 -0.00000000D+00  0.00000000D+00 -0.00000000D+00
  0.37189517D-02  0.11059287D-01 -0.14778238D-01 -0.49523874D-01  0.28634644D-01
  0.25311814D+00
MO   15     MO 0.0        OCC NO =    0.0000000  ORB. ENERGY =    0.692851
 -0.00000000D+00 -0.00000000D+00 -0.00000000D+00 -0.00000000D+00 -0.00000000D+00
 -0.00000000D+00 -0.00000000D+00 -0.00000000D+00  0.00000000D+00  0.00000000D+00
  0.00000000D+00  0.00000000D+00  0.00000000D+00  0.00000000D+00  0.00000000D+00
 -0.00000000D+00 -0.00000000D+00 -0.00000000D+00  0.00000000D+00 -0.00000000D+00
 -0.00000000D+00  0.00000000D+00  0.00000000D+00  0.00000000D+00  0.00000000D+00
 -0.00000000D+00  0.00000000D+00 -0.00000000D+00 -0.00000000D+00  0.00000000D+00
  0.37071628D-01  0.10704227D+00 -0.14411390D+00 -0.12451518D-02  0.68148281D-02
 -0.28285849D-01
MO   16     MO 0.0        OCC NO =    0.0000000  ORB. ENERGY =    0.692851
  0.00000000D+00  0.00000000D+00  0.00000000D+00  0.00000000D+00  0.00000000D+00
  0.00000000D+00  0.00000000D+00  0.00000000D+00 -0.00000000D+00  0.00000000D+00
  0.00000000D+00  0.00000000D+00 -0.00000000D+00 -0.00000000D+00 -0.00000000D+00
 -0.00000000D+00 -0.00000000D+00 -0.00000000D+00 -0.00000000D+00 -0.00000000D+00
  0.00000000D+00  0.00000000D+00  0.00000000D+00 -0.00000000D+00 -0.00000000D+00
 -0.00000000D+00 -0.00000000D+00 -0.00000000D+00  0.00000000D+00  0.00000000D+00
  0.51194215D-02 -0.69551159D-02  0.18356945D-02 -0.25589175D+00 -0.77175402D-02
 -0.48521791D-01
MO   17     MO 0.0        OCC NO =    0.0000000  ORB. ENERGY =    0.692851
 -0.00000000D+00 -0.00000000D+00 -0.00000000D+00 -0.00000000D+00 -0.00000000D+00
 -0.00000000D+00 -0.00000000D+00 -0.00000000D+00  0.00000000D+00 -0.00000000D+00
 -0.00000000D+00 -0.00000000D+00 -0.00000000D+00 -0.00000000D+00 -0.00000000D+00
  0.00000000D+00  0.00000000D+00  0.00000000D+00  0.00000000D+00  0.00000000D+00
  0.00000000D+00 -0.00000000D+00  0.00000000D+00 -0.00000000D+00 -0.00000000D+00
  0.00000000D+00 -0.00000000D+00  0.00000000D+00  0.00000000D+00 -0.00000000D+00
 -0.67755643D-02  0.10006992D-01 -0.32314276D-02  0.15340308D-02 -0.25869307D+00
  0.28512776D-01
MO   18     MO 0.0        OCC NO =    0.0000000  ORB. ENERGY =    0.692851
 -0.00000000D+00 -0.00000000D+00 -0.00000000D+00 -0.00000000D+00 -0.00000000D+00
 -0.00000000D+00  0.00000000D+00  0.00000000D+00 -0.00000000D+00  0.00000000D+00
  0.00000000D+00  0.00000000D+00 -0.00000000D+00 -0.00000000D+00 -0.00000000D+00
 -0.00000000D+00 -0.00000000D+00 -0.00000000D+00  0.00000000D+00  0.00000000D+00
 -0.00000000D+00  0.00000000D+00 -0.00000000D+00  0.00000000D+00  0.00000000D+00
 -0.00000000D+00  0.00000000D+00 -0.00000000D+00 -0.00000000D+00 -0.00000000D+00
 -0.14568191D+00  0.10466424D+00  0.41017669D-01 -0.10644756D-01  0.14225581D-01
 -0.37675366D-02
MO   19     MO 0.0        OCC NO =    0.0000000  ORB. ENERGY =    1.198790
 -0.00000000D+00 -0.00000000D+00 -0.00000000D+00 -0.00000000D+00 -0.00000000D+00
 -0.00000000D+00  0.00000000D+00  0.00000000D+00 -0.00000000D+00  0.41835233D-01
  0.35600553D-01  0.28020726D-01 -0.23473133D-01 -0.19974946D-01 -0.15722016D-01
  0.10255492D+01  0.87271225D+00  0.68690030D+00  0.00000000D+00 -0.10422310D-01
  0.58478047D-02 -0.25549260D+00 -0.00000000D+00  0.17078525D-02 -0.95825084D-03
  0.41866308D-01  0.00000000D+00 -0.16810662D-03  0.94322137D-04 -0.41209683D-02
  0.00000000D+00  0.00000000D+00  0.00000000D+00 -0.00000000D+00  0.00000000D+00
  0.00000000D+00
MO   20     MO 0.0        OCC NO =    0.0000000  ORB. ENERGY =    1.198790
 -0.00000000D+00 -0.00000000D+00 -0.00000000D+00 -0.00000000D+00 -0.00000000D+00
 -0.00000000D+00  0.00000000D+00  0.00000000D+00 -0.00000000D+00 -0.18485303D-01
 -0.15730449D-01 -0.12381229D-01  0.10262178D+01  0.87328119D+00  0.68734811D+00
  0.24242504D-01  0.20629658D-01  0.16237332D-01 -0.00000000D+00  0.46051985D-02
 -0.25565916D+00 -0.60394768D-02  0.00000000D+00 -0.75463126D-03  0.41893602D-01
  0.98965916D-03 -0.00000000D+00  0.74279608D-04 -0.41236549D-02 -0.97413782D-04
 -0.00000000D+00  0.00000000D+00 -0.00000000D+00 -0.00000000D+00 -0.00000000D+00
  0.00000000D+00
MO   21     MO 0.0        OCC NO =    0.0000000  ORB. ENERGY =    1.198790
  0.00000000D+00  0.00000000D+00  0.00000000D+00  0.00000000D+00  0.00000000D+00
  0.00000000D+00  0.00000000D+00  0.00000000D+00 -0.00000000D+00  0.10256513D+01
  0.87279907D+00  0.68696864D+00  0.19452960D-01  0.16553897D-01  0.13029354D-01
 -0.41394146D-01 -0.35225201D-01 -0.27725291D-01 -0.00000000D+00 -0.25551802D+00
 -0.48462685D-02  0.10312424D-01 -0.00000000D+00  0.41870473D-01  0.79413387D-03
 -0.16898459D-02 -0.00000000D+00 -0.41213783D-02 -0.78167891D-04  0.16633427D-03
  0.00000000D+00 -0.00000000D+00  0.00000000D+00  0.00000000D+00 -0.00000000D+00
 -0.00000000D+00
MO   22     MO 0.0        OCC NO =    0.0000000  ORB. ENERGY =    1.414740
  0.71167754D-01  0.13175695D+00  0.21337871D+00  0.27363858D+00  0.24823647D+00
  0.12060913D-01  0.27769165D+00  0.73408371D+00 -0.90329565D-03 -0.00000000D+00
 -0.00000000D+00 -0.00000000D+00  0.00000000D+00  0.00000000D+00  0.00000000D+00
 -0.00000000D+00 -0.00000000D+00 -0.00000000D+00 -0.53184911D+00  0.00000000D+00
  0.00000000D+00  0.00000000D+00 -0.11650473D+00 -0.00000000D+00  0.00000000D+00
 -0.00000000D+00  0.19352648D-01 -0.00000000D+00  0.00000000D+00  0.00000000D+00
  0.25271700D+00  0.25271700D+00  0.25271700D+00  0.00000000D+00 -0.00000000D+00
  0.00000000D+00
MO   23     MO 0.0        OCC NO =    0.0000000  ORB. ENERGY =   10.066600
 -0.82169816D+00 -0.15212570D+01 -0.24636564D+01 -0.31594129D+01 -0.28661218D+01
 -0.13925450D+00  0.97405958D+00  0.25749470D+01 -0.31684921D-02  0.00000000D+00
  0.00000000D+00  0.00000000D+00 -0.00000000D+00 -0.00000000D+00 -0.00000000D+00
 -0.00000000D+00 -0.00000000D+00 -0.00000000D+00 -0.37191679D+00  0.00000000D+00
 -0.00000000D+00  0.00000000D+00 -0.31246516D-01  0.00000000D+00 -0.00000000D+00
 -0.00000000D+00  0.57951231D-02  0.00000000D+00 -0.00000000D+00  0.00000000D+00
  0.13168643D+00  0.13168643D+00  0.13168643D+00 -0.00000000D+00  0.00000000D+00
 -0.00000000D+00
END DATA
 THE  HF ENERGY =    -14.571945868338 THE VIRIAL(-V/T)=   2.00004334


 $MOSPIN $END
 3 3 3 3 3 3 3 3 3 3 3 3 3 3 3 3 3 3 3 3 3 3 3


