[Molden Format]
[Atoms] AU
BE       1       4     0.00000000     0.00000000     0.00000000
[GTO]
  1 0
s  6 1.00
   1.6828000000E+03   2.2857400000E-03
   2.5171500000E+02   1.7593800000E-02
   5.7411600000E+01   8.6331500000E-02
   1.6517100000E+01   2.8183500000E-01
   4.8536400000E+00   6.4059400000E-01
   6.2686300000E-01   1.4446700000E-01
s  3 1.00
   8.3093800000E+00   1.0862100000E-01
   1.7407500000E+00   9.2730100000E-01
   4.8581600000E-01  -2.9716900000E-03
p  3 1.00
   8.3093800000E+00   3.6134400000E-02
   1.7407500000E+00   2.1695800000E-01
   4.8581600000E-01   8.4183900000E-01
s  1 1.00
   1.6361300000E-01   1.0000000000E+00
p  1 1.00
   1.6361300000E-01   1.0000000000E+00
s  1 1.00
   5.6728500000E-02   1.0000000000E+00
p  1 1.00
   5.6728500000E-02   1.0000000000E+00
s  1 1.00
   2.0700000000E-02   1.0000000000E+00
p  1 1.00
   2.0700000000E-02   1.0000000000E+00
d  1 1.00
   2.5500000000E-01   1.0000000000E+00
 
 
[MO]
Ene=    -4.73235E+00
Spin= Alpha
Occup=   2.0000000000
   1       0.59628020
   2       0.44644312
   3       0.00000000
   4       0.00000000
   5      -0.00000000
   6      -0.00488926
   7       0.00000000
   8      -0.00000000
   9       0.00000000
  10       0.00142518
  11       0.00000000
  12       0.00000000
  13       0.00000000
  14      -0.00042892
  15       0.00000000
  16      -0.00000000
  17      -0.00000000
  18       0.00067091
  19       0.00067091
  20       0.00067091
  21      -0.00000000
  22      -0.00000000
  23      -0.00000000
Ene=    -3.09258E-01
Spin= Alpha
Occup=   2.0000000000
   1       0.10958600
   2       0.18569382
   3      -0.00000000
   4       0.00000000
   5       0.00000000
   6      -0.58399962
   7      -0.00000000
   8       0.00000000
   9      -0.00000000
  10      -0.50012851
  11      -0.00000000
  12       0.00000000
  13       0.00000000
  14      -0.02234730
  15      -0.00000000
  16       0.00000000
  17      -0.00000000
  18       0.00177247
  19       0.00177247
  20       0.00177247
  21       0.00000000
  22      -0.00000000
  23      -0.00000000
Ene=     2.95657E-02
Spin= Alpha
Occup=   0.0000000000
   1       0.00000000
   2       0.00000000
   3      -0.00147230
   4      -0.00002118
   5       0.07595884
   6       0.00000000
   7      -0.00386423
   8      -0.00005558
   9       0.19936396
  10      -0.00000000
  11      -0.00003882
  12      -0.00000056
  13       0.00200294
  14       0.00000000
  15      -0.01740023
  16      -0.00025029
  17       0.89771463
  18       0.00000000
  19       0.00000000
  20       0.00000000
  21       0.00000000
  22      -0.00000000
  23       0.00000000
Ene=     2.95657E-02
Spin= Alpha
Occup=   0.0000000000
   1       0.00000000
   2      -0.00000000
   3      -0.00436577
   4      -0.07584749
   5      -0.00010577
   6      -0.00000000
   7      -0.01145853
   8      -0.19907172
   9      -0.00027760
  10       0.00000000
  11      -0.00011512
  12      -0.00200000
  13      -0.00000279
  14      -0.00000000
  15      -0.05159653
  16      -0.89639870
  17      -0.00125001
  18       0.00000000
  19      -0.00000000
  20      -0.00000000
  21      -0.00000000
  22      -0.00000000
  23      -0.00000000
Ene=     2.95657E-02
Spin= Alpha
Occup=   0.0000000000
   1       0.00000000
   2       0.00000000
   3       0.07583327
   4      -0.00436700
   5       0.00146864
   6       0.00000000
   7       0.19903440
   8      -0.01146176
   9       0.00385465
  10      -0.00000000
  11       0.00199963
  12      -0.00011515
  13       0.00003873
  14       0.00000000
  15       0.89623067
  16      -0.05161106
  17       0.01735708
  18       0.00000000
  19      -0.00000000
  20       0.00000000
  21      -0.00000000
  22      -0.00000000
  23       0.00000000
Ene=     5.10962E-02
Spin= Alpha
Occup=   0.0000000000
   1       0.03070780
   2       0.06677068
   3       0.00000000
   4      -0.00000000
   5      -0.00000000
   6      -0.01237736
   7       0.00000000
   8      -0.00000000
   9      -0.00000000
  10      -1.48552064
  11      -0.00000000
  12       0.00000000
  13      -0.00000000
  14       1.84936860
  15       0.00000000
  16      -0.00000000
  17      -0.00000000
  18       0.04913267
  19       0.04913267
  20       0.04913267
  21       0.00000000
  22      -0.00000000
  23      -0.00000000
Ene=     9.80286E-02
Spin= Alpha
Occup=   0.0000000000
   1       0.00000000
   2       0.00000000
   3       0.00332265
   4      -0.00400813
   5       0.17363795
   6      -0.00000000
   7       0.00175390
   8      -0.00211573
   9       0.09165659
  10      -0.00000000
  11       0.02380029
  12      -0.02871044
  13       1.24377614
  14       0.00000000
  15      -0.02223263
  16       0.02681936
  17      -1.16185209
  18       0.00000000
  19      -0.00000000
  20      -0.00000000
  21      -0.00000000
  22       0.00000000
  23      -0.00000000
Ene=     9.80286E-02
Spin= Alpha
Occup=   0.0000000000
   1       0.00000000
   2       0.00000000
   3      -0.04797139
   4      -0.16693523
   5      -0.00293546
   6      -0.00000000
   7      -0.02532219
   8      -0.08811849
   9      -0.00154951
  10       0.00000000
  11      -0.34362112
  12      -1.19576429
  13      -0.02102680
  14      -0.00000000
  15       0.32098776
  16       1.11700265
  17       0.01964182
  18      -0.00000000
  19       0.00000000
  20       0.00000000
  21       0.00000000
  22       0.00000000
  23      -0.00000000
Ene=     9.80286E-02
Spin= Alpha
Occup=   0.0000000000
   1       0.00000000
   2       0.00000000
   3      -0.16692797
   4       0.04789369
   5       0.00429980
   6      -0.00000000
   7      -0.08811466
   8       0.02528118
   9       0.00226969
  10      -0.00000000
  11      -1.19571230
  12       0.34306459
  13       0.03079962
  14       0.00000000
  15       1.11695408
  16      -0.32046789
  17      -0.02877094
  18      -0.00000000
  19       0.00000000
  20      -0.00000000
  21      -0.00000000
  22      -0.00000000
  23      -0.00000000
Ene=     3.21205E-01
Spin= Alpha
Occup=   0.0000000000
   1      -0.10082017
   2      -0.12068364
   3      -0.00000000
   4       0.00000000
   5       0.00000000
   6       1.78312829
   7      -0.00000000
   8       0.00000000
   9       0.00000000
  10      -3.26831352
  11       0.00000000
  12      -0.00000000
  13      -0.00000000
  14       1.32221679
  15      -0.00000000
  16       0.00000000
  17       0.00000000
  18       0.26061098
  19       0.26061098
  20       0.26061098
  21       0.00000000
  22      -0.00000000
  23      -0.00000000
Ene=     3.45805E-01
Spin= Alpha
Occup=   0.0000000000
   1      -0.00000000
   2      -0.00000000
   3      -0.00499701
   4      -0.00059431
   5      -0.19206975
   6       0.00000000
   7      -0.03454475
   8      -0.00410848
   9      -1.32779402
  10      -0.00000000
  11       0.04694071
  12       0.00558276
  13       1.80425657
  14       0.00000000
  15      -0.01951781
  16      -0.00232129
  17      -0.75020445
  18       0.00000000
  19       0.00000000
  20       0.00000000
  21       0.00000000
  22       0.00000000
  23      -0.00000000
Ene=     3.45805E-01
Spin= Alpha
Occup=   0.0000000000
   1       0.00000000
   2       0.00000000
   3      -0.05048217
   4       0.18538370
   5       0.00073976
   6      -0.00000000
   7      -0.34898741
   8       1.28157279
   9       0.00511402
  10       0.00000000
  11       0.47421724
  12      -1.74144942
  13      -0.00694912
  14      -0.00000000
  15      -0.19717810
  16       0.72408943
  17       0.00288943
  18      -0.00000000
  19      -0.00000000
  20      -0.00000000
  21       0.00000000
  22      -0.00000000
  23      -0.00000000
Ene=     3.45805E-01
Spin= Alpha
Occup=   0.0000000000
   1      -0.00000000
   2      -0.00000000
   3       0.18531782
   4       0.05048409
   5      -0.00497756
   6       0.00000000
   7       1.28111733
   8       0.34900069
   9      -0.03441026
  10      -0.00000000
  11      -1.74083053
  12      -0.47423530
  13       0.04675796
  14       0.00000000
  15       0.72383209
  16       0.19718561
  17      -0.01944182
  18       0.00000000
  19      -0.00000000
  20       0.00000000
  21       0.00000000
  22       0.00000000
  23      -0.00000000
Ene=     6.92851E-01
Spin= Alpha
Occup=   0.0000000000
   1      -0.00000000
   2      -0.00000000
   3       0.00000000
   4      -0.00000000
   5      -0.00000000
   6       0.00000000
   7       0.00000000
   8       0.00000000
   9      -0.00000000
  10      -0.00000000
  11      -0.00000000
  12      -0.00000000
  13       0.00000000
  14       0.00000000
  15      -0.00000000
  16       0.00000000
  17      -0.00000000
  18       0.02469254
  19       0.07342980
  20      -0.09812234
  21      -0.18984502
  22       0.10976816
  23       0.97030410
Ene=     6.92851E-01
Spin= Alpha
Occup=   0.0000000000
   1      -0.00000000
   2      -0.00000000
   3       0.00000000
   4       0.00000000
   5      -0.00000000
   6       0.00000000
   7      -0.00000000
   8      -0.00000000
   9       0.00000000
  10       0.00000000
  11       0.00000000
  12       0.00000000
  13      -0.00000000
  14       0.00000000
  15      -0.00000000
  16      -0.00000000
  17       0.00000000
  18       0.24614266
  19       0.71072327
  20      -0.95686593
  21      -0.00477317
  22       0.02612399
  23      -0.10843109
Ene=     6.92851E-01
Spin= Alpha
Occup=   0.0000000000
   1       0.00000000
   2       0.00000000
   3       0.00000000
   4      -0.00000000
   5      -0.00000000
   6      -0.00000000
   7      -0.00000000
   8       0.00000000
   9       0.00000000
  10       0.00000000
  11      -0.00000000
  12      -0.00000000
  13      -0.00000000
  14      -0.00000000
  15      -0.00000000
  16       0.00000000
  17       0.00000000
  18       0.03399117
  19      -0.04617954
  20       0.01218837
  21      -0.98093649
  22      -0.02958445
  23      -0.18600363
Ene=     6.92851E-01
Spin= Alpha
Occup=   0.0000000000
   1      -0.00000000
   2      -0.00000000
   3      -0.00000000
   4      -0.00000000
   5       0.00000000
   6       0.00000000
   7       0.00000000
   8       0.00000000
   9      -0.00000000
  10       0.00000000
  11      -0.00000000
  12      -0.00000000
  13       0.00000000
  14      -0.00000000
  15       0.00000000
  16       0.00000000
  17      -0.00000000
  18      -0.04498738
  19       0.06644293
  20      -0.02145555
  21       0.00588056
  22      -0.99167508
  23       0.10930099
Ene=     6.92851E-01
Spin= Alpha
Occup=   0.0000000000
   1      -0.00000000
   2       0.00000000
   3       0.00000000
   4      -0.00000000
   5      -0.00000000
   6       0.00000000
   7       0.00000000
   8      -0.00000000
   9       0.00000000
  10      -0.00000000
  11       0.00000000
  12       0.00000000
  13      -0.00000000
  14       0.00000000
  15      -0.00000000
  16      -0.00000000
  17      -0.00000000
  18      -0.96727701
  19       0.69493402
  20       0.27234299
  21      -0.04080565
  22       0.05453240
  23      -0.01444249
Ene=     1.19879E+00
Spin= Alpha
Occup=   0.0000000000
   1      -0.00000000
   2       0.00000000
   3       0.05757321
   4      -0.03230348
   5       1.41135014
   6       0.00000000
   7      -0.07026704
   8       0.03942580
   9      -1.72252677
  10      -0.00000000
  11       0.04327715
  12      -0.02428217
  13       1.06089634
  14       0.00000000
  15      -0.01502041
  16       0.00842773
  17      -0.36821057
  18       0.00000000
  19       0.00000000
  20       0.00000000
  21      -0.00000000
  22       0.00000000
  23       0.00000000
Ene=     1.19879E+00
Spin= Alpha
Occup=   0.0000000000
   1      -0.00000000
   2       0.00000000
   3      -0.02543928
   4       1.41227023
   5       0.03336228
   6      -0.00000000
   7       0.03104817
   8      -1.72364973
   9      -0.04071805
  10       0.00000000
  11      -0.01912243
  12       1.06158796
  13       0.02507806
  14      -0.00000000
  15       0.00663692
  16      -0.36845062
  17      -0.00870397
  18      -0.00000000
  19       0.00000000
  20      -0.00000000
  21      -0.00000000
  22      -0.00000000
  23       0.00000000
Ene=     1.19879E+00
Spin= Alpha
Occup=   0.0000000000
   1       0.00000000
   2       0.00000000
   3       1.41149055
   4       0.02677096
   5      -0.05696619
   6      -0.00000000
   7      -1.72269814
   8      -0.03267346
   9       0.06952619
  10      -0.00000000
  11       1.06100188
  12       0.02012343
  13      -0.04282086
  14      -0.00000000
  15      -0.36824721
  16      -0.00698434
  17       0.01486205
  18       0.00000000
  19      -0.00000000
  20       0.00000000
  21       0.00000000
  22      -0.00000000
  23      -0.00000000
Ene=     1.41474E+00
Spin= Alpha
Occup=   0.0000000000
   1       0.16627305
   2       0.73292972
   3      -0.00000000
   4       0.00000000
   5      -0.00000000
   6      -2.90078129
   7       0.00000000
   8       0.00000000
   9       0.00000000
  10      -1.40631456
  11      -0.00000000
  12       0.00000000
  13      -0.00000000
  14       0.49756813
  15      -0.00000000
  16       0.00000000
  17       0.00000000
  18       1.67795259
  19       1.67795259
  20       1.67795259
  21       0.00000000
  22      -0.00000000
  23       0.00000000
Ene=     1.00666E+01
Spin= Alpha
Occup=   0.0000000000
   1      -1.91977757
   2       2.57089914
   3       0.00000000
   4      -0.00000000
   5      -0.00000000
   6      -2.02848752
   7       0.00000000
   8      -0.00000000
   9       0.00000000
  10      -0.37717295
  11       0.00000000
  12      -0.00000000
  13      -0.00000000
  14       0.14899607
  15       0.00000000
  16      -0.00000000
  17       0.00000000
  18       0.87435186
  19       0.87435186
  20       0.87435186
  21      -0.00000000
  22       0.00000000
  23      -0.00000000
