[Molden Format]
[Title]
 Molden2AIM, Version 3.1.0 (02/25/2015)           Time: Mon Nov 25 15:42:47 2024

[Atoms] AU
BE       1       4     0.00000000     0.00000000     0.00000000
BE       2       4     0.00000000     0.00000000     2.63600000
[GTO]
    1 0
 S   6 1.0
    0.1682800000D+04      0.2285740532D-02
    0.2517150000D+03      0.1759380410D-01
    0.5741160000D+02      0.8633152009D-01
    0.1651710000D+02      0.2818350656D+00
    0.4853640000D+01      0.6405941491D+00
    0.6268630000D+00      0.1444670336D+00
 S   3 1.0
    0.8309380000D+01      0.1086210323D+00
    0.1740750000D+01      0.9273012759D+00
    0.4858160000D+00     -0.2971690884D-02
 P   3 1.0
    0.8309380000D+01      0.3613440323D-01
    0.1740750000D+01      0.2169580194D+00
    0.4858160000D+00      0.8418390753D+00
 S   1 1.0
    0.1636130000D+00      0.1000000000D+01
 P   1 1.0
    0.1636130000D+00      0.1000000000D+01
 S   1 1.0
    0.5672850000D-01      0.1000000000D+01
 P   1 1.0
    0.5672850000D-01      0.1000000000D+01
 S   1 1.0
    0.2070000000D-01      0.1000000000D+01
 P   1 1.0
    0.2070000000D-01      0.1000000000D+01
 D   1 1.0
    0.2550000000D+00      0.1000000000D+01

    2 0
 S   6 1.0
    0.1682800000D+04      0.2285740532D-02
    0.2517150000D+03      0.1759380410D-01
    0.5741160000D+02      0.8633152009D-01
    0.1651710000D+02      0.2818350656D+00
    0.4853640000D+01      0.6405941491D+00
    0.6268630000D+00      0.1444670336D+00
 S   3 1.0
    0.8309380000D+01      0.1086210323D+00
    0.1740750000D+01      0.9273012759D+00
    0.4858160000D+00     -0.2971690884D-02
 P   3 1.0
    0.8309380000D+01      0.3613440323D-01
    0.1740750000D+01      0.2169580194D+00
    0.4858160000D+00      0.8418390753D+00
 S   1 1.0
    0.1636130000D+00      0.1000000000D+01
 P   1 1.0
    0.1636130000D+00      0.1000000000D+01
 S   1 1.0
    0.5672850000D-01      0.1000000000D+01
 P   1 1.0
    0.5672850000D-01      0.1000000000D+01
 S   1 1.0
    0.2070000000D-01      0.1000000000D+01
 P   1 1.0
    0.2070000000D-01      0.1000000000D+01
 D   1 1.0
    0.2550000000D+00      0.1000000000D+01


[MO]
 Ene=         -4.76155000
 Spin= Alpha
 Occup=        2.00000000
    1        0.4197851400
    2        0.3135587600
    3       -0.0000000000
    4        0.0000000000
    5        0.0043529300
    6        0.0032736100
    7        0.0000000000
    8        0.0000000000
    9       -0.0018481800
   10        0.0007686400
   11       -0.0000000000
   12        0.0000000000
   13        0.0017297900
   14       -0.0000791300
   15       -0.0000000000
   16       -0.0000000000
   17       -0.0011356900
   18       -0.0018311700
   19       -0.0018311700
   20       -0.0008825100
   21       -0.0000000000
   22        0.0000000000
   23        0.0000000000
   24        0.4197851400
   25        0.3135587600
   26        0.0000000000
   27        0.0000000000
   28       -0.0043529300
   29        0.0032736100
   30       -0.0000000000
   31       -0.0000000000
   32        0.0018481800
   33        0.0007686400
   34        0.0000000000
   35        0.0000000000
   36       -0.0017297900
   37       -0.0000791300
   38        0.0000000000
   39        0.0000000000
   40        0.0011356900
   41       -0.0018311700
   42       -0.0018311700
   43       -0.0008825100
   44        0.0000000000
   45        0.0000000000
   46        0.0000000000
 Ene=         -4.74841000
 Spin= Alpha
 Occup=        2.00000000
    1        0.4219397100
    2        0.3165769500
    3       -0.0000000000
    4        0.0000000000
    5        0.0029276200
    6        0.0073936100
    7        0.0000000000
    8        0.0000000000
    9        0.0054315600
   10        0.0047138700
   11        0.0000000000
   12       -0.0000000000
   13        0.0007810200
   14       -0.0166779600
   15       -0.0000000000
   16        0.0000000000
   17       -0.0030699100
   18       -0.0010844300
   19       -0.0010844300
   20        0.0023485700
   21        0.0000000000
   22       -0.0000000000
   23        0.0000000000
   24       -0.4219397100
   25       -0.3165769500
   26       -0.0000000000
   27        0.0000000000
   28        0.0029276200
   29       -0.0073936100
   30        0.0000000000
   31       -0.0000000000
   32        0.0054315600
   33       -0.0047138700
   34       -0.0000000000
   35        0.0000000000
   36        0.0007810200
   37        0.0166779600
   38        0.0000000000
   39       -0.0000000000
   40       -0.0030699100
   41        0.0010844300
   42        0.0010844300
   43       -0.0023485700
   44       -0.0000000000
   45        0.0000000000
   46        0.0000000000
 Ene=         -0.49789700
 Spin= Alpha
 Occup=        2.00000000
    1        0.1066296600
    2        0.1791137900
    3       -0.0000000000
    4       -0.0000000000
    5       -0.1262420200
    6       -0.4255427300
    7        0.0000000000
    8       -0.0000000000
    9       -0.1033516600
   10       -0.1271146500
   11       -0.0000000000
   12        0.0000000000
   13       -0.0041037300
   14        0.0048555100
   15        0.0000000000
   16       -0.0000000000
   17        0.0070740300
   18        0.0229775800
   19        0.0229775800
   20       -0.0182970500
   21        0.0000000000
   22        0.0000000000
   23       -0.0000000000
   24        0.1066296600
   25        0.1791137900
   26       -0.0000000000
   27        0.0000000000
   28        0.1262420200
   29       -0.4255427300
   30       -0.0000000000
   31        0.0000000000
   32        0.1033516600
   33       -0.1271146500
   34        0.0000000000
   35       -0.0000000000
   36        0.0041037300
   37        0.0048555100
   38       -0.0000000000
   39        0.0000000000
   40       -0.0070740300
   41        0.0229775800
   42        0.0229775800
   43       -0.0182970500
   44       -0.0000000000
   45        0.0000000000
   46       -0.0000000000
 Ene=         -0.20851000
 Spin= Alpha
 Occup=        2.00000000
    1        0.0621737300
    2        0.1074471400
    3       -0.0000000000
    4       -0.0000000000
    5        0.0870451700
    6       -0.3494484700
    7       -0.0000000000
    8        0.0000000000
    9        0.1143657400
   10       -0.9429833300
   11       -0.0000000000
   12       -0.0000000000
   13       -0.0393999300
   14       -0.3088522800
   15        0.0000000000
   16        0.0000000000
   17       -0.0174192500
   18       -0.0109667700
   19       -0.0109667700
   20        0.0094259200
   21        0.0000000000
   22       -0.0000000000
   23        0.0000000000
   24       -0.0621737300
   25       -0.1074471400
   26       -0.0000000000
   27       -0.0000000000
   28        0.0870451700
   29        0.3494484700
   30       -0.0000000000
   31       -0.0000000000
   32        0.1143657400
   33        0.9429833300
   34       -0.0000000000
   35        0.0000000000
   36       -0.0393999300
   37        0.3088522800
   38       -0.0000000000
   39       -0.0000000000
   40       -0.0174192500
   41        0.0109667700
   42        0.0109667700
   43       -0.0094259200
   44       -0.0000000000
   45        0.0000000000
   46        0.0000000000
 Ene=         -0.02445690
 Spin= Alpha
 Occup=        0.00000000
    1        0.0000000000
    2       -0.0000000000
    3        0.0248535300
    4       -0.1429106700
    5        0.0000000000
    6       -0.0000000000
    7        0.0370724100
    8       -0.2131706300
    9       -0.0000000000
   10       -0.0000000000
   11        0.0328666300
   12       -0.1889869000
   13        0.0000000000
   14        0.0000000000
   15        0.0211119900
   16       -0.1213963500
   17        0.0000000000
   18        0.0000000000
   19        0.0000000000
   20       -0.0000000000
   21        0.0000000000
   22        0.0060173900
   23       -0.0346007100
   24       -0.0000000000
   25       -0.0000000000
   26        0.0248535300
   27       -0.1429106700
   28       -0.0000000000
   29        0.0000000000
   30        0.0370724100
   31       -0.2131706300
   32       -0.0000000000
   33        0.0000000000
   34        0.0328666300
   35       -0.1889869000
   36        0.0000000000
   37       -0.0000000000
   38        0.0211119900
   39       -0.1213963500
   40        0.0000000000
   41       -0.0000000000
   42       -0.0000000000
   43        0.0000000000
   44        0.0000000000
   45       -0.0060173900
   46        0.0346007100
 Ene=         -0.02445690
 Spin= Alpha
 Occup=        0.00000000
    1        0.0000000000
    2        0.0000000000
    3        0.1429106700
    4        0.0248535300
    5        0.0000000000
    6       -0.0000000000
    7        0.2131706300
    8        0.0370724100
    9       -0.0000000000
   10       -0.0000000000
   11        0.1889869000
   12        0.0328666300
   13        0.0000000000
   14        0.0000000000
   15        0.1213963500
   16        0.0211119900
   17        0.0000000000
   18        0.0000000000
   19        0.0000000000
   20       -0.0000000000
   21       -0.0000000000
   22        0.0346007100
   23        0.0060173900
   24       -0.0000000000
   25       -0.0000000000
   26        0.1429106700
   27        0.0248535300
   28        0.0000000000
   29        0.0000000000
   30        0.2131706300
   31        0.0370724100
   32       -0.0000000000
   33       -0.0000000000
   34        0.1889869000
   35        0.0328666300
   36        0.0000000000
   37       -0.0000000000
   38        0.1213963500
   39        0.0211119900
   40        0.0000000000
   41       -0.0000000000
   42       -0.0000000000
   43        0.0000000000
   44        0.0000000000
   45       -0.0346007100
   46       -0.0060173900
 Ene=         -0.00244487
 Spin= Alpha
 Occup=        0.00000000
    1       -0.0149221100
    2       -0.0277940800
    3       -0.0000000000
    4        0.0000000000
    5        0.1554596900
    6       -0.0005907300
    7       -0.0000000000
    8       -0.0000000000
    9        0.2202662300
   10        0.0141020500
   11        0.0000000000
   12        0.0000000000
   13        0.1598986800
   14       -0.4623471100
   15        0.0000000000
   16        0.0000000000
   17        0.2826091100
   18       -0.0162815800
   19       -0.0162815800
   20        0.0099207700
   21       -0.0000000000
   22       -0.0000000000
   23       -0.0000000000
   24       -0.0149221100
   25       -0.0277940800
   26        0.0000000000
   27        0.0000000000
   28       -0.1554596900
   29       -0.0005907300
   30        0.0000000000
   31        0.0000000000
   32       -0.2202662300
   33        0.0141020500
   34       -0.0000000000
   35       -0.0000000000
   36       -0.1598986800
   37       -0.4623471100
   38       -0.0000000000
   39        0.0000000000
   40       -0.2826091100
   41       -0.0162815800
   42       -0.0162815800
   43        0.0099207700
   44       -0.0000000000
   45       -0.0000000000
   46       -0.0000000000
 Ene=          0.05124370
 Spin= Alpha
 Occup=        0.00000000
    1        0.0160715500
    2        0.0240318500
    3        0.0000000000
    4        0.0000000000
    5        0.0177923500
    6       -0.5751756900
    7       -0.0000000000
    8        0.0000000000
    9       -0.3243496300
   10        3.5440828100
   11        0.0000000000
   12        0.0000000000
   13        1.4822797200
   14      -47.8572652700
   15       -0.0000000000
   16        0.0000000000
   17       -9.9855449300
   18       -0.0048297700
   19       -0.0048297700
   20       -0.0797273000
   21       -0.0000000000
   22        0.0000000000
   23        0.0000000000
   24       -0.0160715500
   25       -0.0240318500
   26        0.0000000000
   27        0.0000000000
   28        0.0177923500
   29        0.5751756900
   30        0.0000000000
   31       -0.0000000000
   32       -0.3243496300
   33       -3.5440828100
   34       -0.0000000000
   35        0.0000000000
   36        1.4822797200
   37       47.8572652700
   38        0.0000000000
   39       -0.0000000000
   40       -9.9855449300
   41        0.0048297700
   42        0.0048297700
   43        0.0797273000
   44       -0.0000000000
   45       -0.0000000000
   46        0.0000000000
 Ene=          0.05814260
 Spin= Alpha
 Occup=        0.00000000
    1       -0.0000000000
    2       -0.0000000000
    3       -0.0013830800
    4        0.0923111700
    5       -0.0000000000
    6       -0.0000000000
    7       -0.0005466800
    8        0.0364874700
    9       -0.0000000000
   10        0.0000000000
   11       -0.0067458200
   12        0.4502373500
   13        0.0000000000
   14        0.0000000000
   15        0.0106568700
   16       -0.7112727200
   17        0.0000000000
   18       -0.0000000000
   19       -0.0000000000
   20       -0.0000000000
   21       -0.0000000000
   22       -0.0004075200
   23        0.0271990600
   24        0.0000000000
   25        0.0000000000
   26       -0.0013830800
   27        0.0923111700
   28       -0.0000000000
   29       -0.0000000000
   30       -0.0005466800
   31        0.0364874700
   32        0.0000000000
   33       -0.0000000000
   34       -0.0067458200
   35        0.4502373500
   36        0.0000000000
   37       -0.0000000000
   38        0.0106568700
   39       -0.7112727200
   40        0.0000000000
   41        0.0000000000
   42        0.0000000000
   43        0.0000000000
   44       -0.0000000000
   45        0.0004075200
   46       -0.0271990600
 Ene=          0.05814260
 Spin= Alpha
 Occup=        0.00000000
    1        0.0000000000
    2        0.0000000000
    3       -0.0923111700
    4       -0.0013830800
    5        0.0000000000
    6       -0.0000000000
    7       -0.0364874700
    8       -0.0005466800
    9       -0.0000000000
   10        0.0000000000
   11       -0.4502373500
   12       -0.0067458200
   13        0.0000000000
   14       -0.0000000000
   15        0.7112727200
   16        0.0106568700
   17       -0.0000000000
   18        0.0000000000
   19        0.0000000000
   20       -0.0000000000
   21       -0.0000000000
   22       -0.0271990600
   23       -0.0004075200
   24       -0.0000000000
   25       -0.0000000000
   26       -0.0923111700
   27       -0.0013830800
   28        0.0000000000
   29        0.0000000000
   30       -0.0364874700
   31       -0.0005466800
   32       -0.0000000000
   33       -0.0000000000
   34       -0.4502373500
   35       -0.0067458200
   36        0.0000000000
   37        0.0000000000
   38        0.7112727200
   39        0.0106568700
   40       -0.0000000000
   41       -0.0000000000
   42       -0.0000000000
   43        0.0000000000
   44        0.0000000000
   45        0.0271990600
   46        0.0004075200
 Ene=          0.06181290
 Spin= Alpha
 Occup=        0.00000000
    1       -0.0000000000
    2       -0.0000000000
    3        0.0002429200
    4        0.0105513100
    5        0.0000000000
    6        0.0000000000
    7        0.0029215200
    8        0.1268961400
    9        0.0000000000
   10       -0.0000000000
   11       -0.0076067900
   12       -0.3304010500
   13       -0.0000000000
   14       -0.0000000000
   15        0.0678663000
   16        2.9477722300
   17       -0.0000000000
   18       -0.0000000000
   19       -0.0000000000
   20        0.0000000000
   21        0.0000000000
   22        0.0000620200
   23        0.0026939000
   24        0.0000000000
   25        0.0000000000
   26       -0.0002429200
   27       -0.0105513100
   28       -0.0000000000
   29       -0.0000000000
   30       -0.0029215200
   31       -0.1268961400
   32        0.0000000000
   33        0.0000000000
   34        0.0076067900
   35        0.3304010500
   36       -0.0000000000
   37        0.0000000000
   38       -0.0678663000
   39       -2.9477722300
   40       -0.0000000000
   41        0.0000000000
   42        0.0000000000
   43       -0.0000000000
   44        0.0000000000
   45        0.0000620200
   46        0.0026939000
 Ene=          0.06181290
 Spin= Alpha
 Occup=        0.00000000
    1        0.0000000000
    2        0.0000000000
    3        0.0105513100
    4       -0.0002429200
    5        0.0000000000
    6       -0.0000000000
    7        0.1268961400
    8       -0.0029215200
    9       -0.0000000000
   10        0.0000000000
   11       -0.3304010500
   12        0.0076067900
   13        0.0000000000
   14        0.0000000000
   15        2.9477722300
   16       -0.0678663000
   17        0.0000000000
   18        0.0000000000
   19        0.0000000000
   20       -0.0000000000
   21        0.0000000000
   22        0.0026939000
   23       -0.0000620200
   24       -0.0000000000
   25       -0.0000000000
   26       -0.0105513100
   27        0.0002429200
   28        0.0000000000
   29        0.0000000000
   30       -0.1268961400
   31        0.0029215200
   32       -0.0000000000
   33       -0.0000000000
   34        0.3304010500
   35       -0.0076067900
   36        0.0000000000
   37       -0.0000000000
   38       -2.9477722300
   39        0.0678663000
   40        0.0000000000
   41       -0.0000000000
   42       -0.0000000000
   43        0.0000000000
   44       -0.0000000000
   45        0.0026939000
   46       -0.0000620200
 Ene=          0.07128580
 Spin= Alpha
 Occup=        0.00000000
    1        0.0112024100
    2        0.0279419100
    3       -0.0000000000
    4        0.0000000000
    5        0.0646042600
    6        0.0668809000
    7       -0.0000000000
    8        0.0000000000
    9        0.0594045900
   10       -1.1335827200
   11       -0.0000000000
   12        0.0000000000
   13        0.2379414400
   14        0.7103199000
   15       -0.0000000000
   16        0.0000000000
   17        1.4869379100
   18        0.0381149100
   19        0.0381149100
   20        0.0138239200
   21       -0.0000000000
   22       -0.0000000000
   23        0.0000000000
   24        0.0112024100
   25        0.0279419100
   26        0.0000000000
   27        0.0000000000
   28       -0.0646042600
   29        0.0668809000
   30        0.0000000000
   31       -0.0000000000
   32       -0.0594045900
   33       -1.1335827200
   34       -0.0000000000
   35        0.0000000000
   36       -0.2379414400
   37        0.7103199000
   38        0.0000000000
   39       -0.0000000000
   40       -1.4869379100
   41        0.0381149100
   42        0.0381149100
   43        0.0138239200
   44       -0.0000000000
   45       -0.0000000000
   46        0.0000000000
 Ene=          0.07183270
 Spin= Alpha
 Occup=        0.00000000
    1       -0.0027774800
    2       -0.0030982800
    3        0.0000000000
    4       -0.0000000000
    5        0.1359596900
    6        0.0000513400
    7        0.0000000000
    8       -0.0000000000
    9        0.0834755700
   10       -0.5059466400
   11       -0.0000000000
   12        0.0000000000
   13        0.7006598800
   14        0.7014938900
   15        0.0000000000
   16       -0.0000000000
   17       -1.8626374300
   18       -0.0057637900
   19       -0.0057637900
   20        0.0242375200
   21       -0.0000000000
   22       -0.0000000000
   23        0.0000000000
   24       -0.0027774800
   25       -0.0030982800
   26       -0.0000000000
   27       -0.0000000000
   28       -0.1359596900
   29        0.0000513400
   30       -0.0000000000
   31        0.0000000000
   32       -0.0834755700
   33       -0.5059466400
   34        0.0000000000
   35       -0.0000000000
   36       -0.7006598800
   37        0.7014938900
   38       -0.0000000000
   39        0.0000000000
   40        1.8626374300
   41       -0.0057637900
   42       -0.0057637900
   43        0.0242375200
   44       -0.0000000000
   45       -0.0000000000
   46        0.0000000000
 Ene=          0.10699000
 Spin= Alpha
 Occup=        0.00000000
    1       -0.0149949200
    2       -0.0317041000
    3       -0.0000000000
    4        0.0000000000
    5       -0.0205026000
    6        0.7633773100
    7        0.0000000000
    8        0.0000000000
    9        0.6520586600
   10        0.2298377400
   11       -0.0000000000
   12        0.0000000000
   13       -0.9801897400
   14     -108.7903860800
   15        0.0000000000
   16       -0.0000000000
   17      -20.5256664500
   18       -0.0531146900
   19       -0.0531146900
   20        0.1185300300
   21       -0.0000000000
   22       -0.0000000000
   23        0.0000000000
   24        0.0149949200
   25        0.0317041000
   26       -0.0000000000
   27        0.0000000000
   28       -0.0205026000
   29       -0.7633773100
   30        0.0000000000
   31       -0.0000000000
   32        0.6520586600
   33       -0.2298377500
   34       -0.0000000000
   35       -0.0000000000
   36       -0.9801897400
   37      108.7903860800
   38       -0.0000000000
   39        0.0000000000
   40      -20.5256664500
   41        0.0531146900
   42        0.0531146900
   43       -0.1185300300
   44       -0.0000000000
   45       -0.0000000000
   46        0.0000000000
 Ene=          0.16345200
 Spin= Alpha
 Occup=        0.00000000
    1       -0.0000000000
    2       -0.0000000000
    3       -0.1128090900
    4        0.0075423200
    5       -0.0000000000
    6       -0.0000000000
    7       -0.0296471500
    8        0.0019821800
    9       -0.0000000000
   10        0.0000000000
   11       -2.0272341000
   12        0.1355391100
   13        0.0000000000
   14       -0.0000000000
   15        2.0626763700
   16       -0.1379087500
   17       -0.0000000000
   18        0.0000000000
   19        0.0000000000
   20       -0.0000000000
   21       -0.0000000000
   22        0.0300114800
   23       -0.0020065400
   24        0.0000000000
   25        0.0000000000
   26        0.1128090900
   27       -0.0075423200
   28       -0.0000000000
   29        0.0000000000
   30        0.0296471500
   31       -0.0019821800
   32       -0.0000000000
   33       -0.0000000000
   34        2.0272341000
   35       -0.1355391100
   36        0.0000000000
   37        0.0000000000
   38       -2.0626763700
   39        0.1379087500
   40       -0.0000000000
   41        0.0000000000
   42        0.0000000000
   43        0.0000000000
   44       -0.0000000000
   45        0.0300114800
   46       -0.0020065400
 Ene=          0.16345200
 Spin= Alpha
 Occup=        0.00000000
    1        0.0000000000
    2        0.0000000000
    3        0.0075423200
    4        0.1128090900
    5        0.0000000000
    6       -0.0000000000
    7        0.0019821800
    8        0.0296471500
    9       -0.0000000000
   10        0.0000000000
   11        0.1355391100
   12        2.0272341000
   13        0.0000000000
   14        0.0000000000
   15       -0.1379087500
   16       -2.0626763700
   17        0.0000000000
   18       -0.0000000000
   19       -0.0000000000
   20       -0.0000000000
   21        0.0000000000
   22       -0.0020065400
   23       -0.0300114800
   24       -0.0000000000
   25       -0.0000000000
   26       -0.0075423200
   27       -0.1128090900
   28        0.0000000000
   29        0.0000000000
   30       -0.0019821800
   31       -0.0296471500
   32       -0.0000000000
   33       -0.0000000000
   34       -0.1355391100
   35       -2.0272341000
   36        0.0000000000
   37       -0.0000000000
   38        0.1379087500
   39        2.0626763700
   40        0.0000000000
   41       -0.0000000000
   42        0.0000000000
   43        0.0000000000
   44       -0.0000000000
   45       -0.0020065400
   46       -0.0300114800
 Ene=          0.23031200
 Spin= Alpha
 Occup=        0.00000000
    1        0.0282608900
    2        0.0657585700
    3       -0.0000000000
    4        0.0000000000
    5        0.0510319100
    6        1.7891217200
    7       -0.0000000000
    8       -0.0000000000
    9        1.4907863500
   10      -22.6360773400
   11        0.0000000000
   12        0.0000000000
   13       -8.5332626800
   14       12.9871675000
   15       -0.0000000000
   16       -0.0000000000
   17        3.0742361400
   18       -0.0266667300
   19       -0.0266667300
   20        0.3574697100
   21       -0.0000000000
   22       -0.0000000000
   23       -0.0000000000
   24       -0.0282608900
   25       -0.0657585700
   26       -0.0000000000
   27       -0.0000000000
   28        0.0510319100
   29       -1.7891217200
   30        0.0000000000
   31        0.0000000000
   32        1.4907863500
   33       22.6360773400
   34       -0.0000000000
   35       -0.0000000000
   36       -8.5332626800
   37      -12.9871675000
   38        0.0000000000
   39        0.0000000000
   40        3.0742361400
   41        0.0266667300
   42        0.0266667300
   43       -0.3574697100
   44        0.0000000000
   45        0.0000000000
   46       -0.0000000000
 Ene=          0.25955600
 Spin= Alpha
 Occup=        0.00000000
    1       -0.0324942500
    2       -0.0434098000
    3       -0.0000000000
    4       -0.0000000000
    5        0.1155509800
    6        0.6976541900
    7       -0.0000000000
    8       -0.0000000000
    9        0.3104662700
   10       -0.8062393500
   11        0.0000000000
   12        0.0000000000
   13       -1.7580565200
   14        0.1385251600
   15       -0.0000000000
   16       -0.0000000000
   17        1.4954121100
   18        0.0855714500
   19        0.0855714500
   20        0.0684063200
   21       -0.0000000000
   22       -0.0000000000
   23       -0.0000000000
   24       -0.0324942500
   25       -0.0434098000
   26       -0.0000000000
   27       -0.0000000000
   28       -0.1155509800
   29        0.6976541900
   30       -0.0000000000
   31       -0.0000000000
   32       -0.3104662700
   33       -0.8062393500
   34        0.0000000000
   35        0.0000000000
   36        1.7580565200
   37        0.1385251600
   38        0.0000000000
   39       -0.0000000000
   40       -1.4954121100
   41        0.0855714500
   42        0.0855714500
   43        0.0684063200
   44        0.0000000000
   45        0.0000000000
   46       -0.0000000000
 Ene=          0.27123800
 Spin= Alpha
 Occup=        0.00000000
    1       -0.0000000000
    2       -0.0000000000
    3       -0.1116238600
    4       -0.0277789000
    5       -0.0000000000
    6       -0.0000000000
    7       -0.6860297100
    8       -0.1707265100
    9       -0.0000000000
   10       -0.0000000000
   11        1.0615871000
   12        0.2641883500
   13       -0.0000000000
   14       -0.0000000000
   15       -0.4581482500
   16       -0.1140155500
   17       -0.0000000000
   18        0.0000000000
   19        0.0000000000
   20       -0.0000000000
   21       -0.0000000000
   22       -0.0374849900
   23       -0.0093285800
   24        0.0000000000
   25        0.0000000000
   26       -0.1116238600
   27       -0.0277789000
   28       -0.0000000000
   29        0.0000000000
   30       -0.6860297100
   31       -0.1707265100
   32       -0.0000000000
   33        0.0000000000
   34        1.0615871000
   35        0.2641883500
   36       -0.0000000000
   37        0.0000000000
   38       -0.4581482500
   39       -0.1140155500
   40       -0.0000000000
   41       -0.0000000000
   42       -0.0000000000
   43        0.0000000000
   44       -0.0000000000
   45        0.0374849900
   46        0.0093285800
 Ene=          0.27123800
 Spin= Alpha
 Occup=        0.00000000
    1       -0.0000000000
    2       -0.0000000000
    3       -0.0277789000
    4        0.1116238600
    5       -0.0000000000
    6       -0.0000000000
    7       -0.1707265100
    8        0.6860297100
    9       -0.0000000000
   10        0.0000000000
   11        0.2641883500
   12       -1.0615871000
   13        0.0000000000
   14       -0.0000000000
   15       -0.1140155500
   16        0.4581482500
   17       -0.0000000000
   18        0.0000000000
   19        0.0000000000
   20       -0.0000000000
   21        0.0000000000
   22       -0.0093285800
   23        0.0374849900
   24        0.0000000000
   25        0.0000000000
   26       -0.0277789000
   27        0.1116238600
   28       -0.0000000000
   29        0.0000000000
   30       -0.1707265100
   31        0.6860297100
   32       -0.0000000000
   33       -0.0000000000
   34        0.2641883500
   35       -1.0615871000
   36        0.0000000000
   37        0.0000000000
   38       -0.1140155500
   39        0.4581482500
   40       -0.0000000000
   41       -0.0000000000
   42       -0.0000000000
   43        0.0000000000
   44        0.0000000000
   45        0.0093285800
   46       -0.0374849900
 Ene=          0.33125300
 Spin= Alpha
 Occup=        0.00000000
    1       -0.0515892900
    2       -0.0634170700
    3        0.0000000000
    4        0.0000000000
    5       -0.0996215800
    6        1.1674032900
    7       -0.0000000000
    8       -0.0000000000
    9       -0.6154889800
   10       -1.9412743300
   11        0.0000000000
   12        0.0000000000
   13        0.7542754700
   14        0.7272080900
   15       -0.0000000000
   16       -0.0000000000
   17       -0.0274317600
   18        0.1488990300
   19        0.1488990300
   20        0.1098115800
   21        0.0000000000
   22       -0.0000000000
   23       -0.0000000000
   24       -0.0515892900
   25       -0.0634170700
   26       -0.0000000000
   27       -0.0000000000
   28        0.0996215800
   29        1.1674032900
   30       -0.0000000000
   31        0.0000000000
   32        0.6154889800
   33       -1.9412743300
   34        0.0000000000
   35       -0.0000000000
   36       -0.7542754700
   37        0.7272080900
   38        0.0000000000
   39        0.0000000000
   40        0.0274317600
   41        0.1488990300
   42        0.1488990300
   43        0.1098115800
   44       -0.0000000000
   45       -0.0000000000
   46       -0.0000000000
 Ene=          0.37498700
 Spin= Alpha
 Occup=        0.00000000
    1       -0.0450009800
    2       -0.0572664800