[Molden Format]
[Atoms] AU
BE       1       4     0.00000000     0.00000000     0.00000000
BE       2       4     0.00000000     0.00000000     2.63600000
[GTO]
  1 0
s  6 1.00
   1.6828000000E+03   2.2857400000E-03
   2.5171500000E+02   1.7593800000E-02
   5.7411600000E+01   8.6331500000E-02
   1.6517100000E+01   2.8183500000E-01
   4.8536400000E+00   6.4059400000E-01
   6.2686300000E-01   1.4446700000E-01
s  3 1.00
   8.3093800000E+00   1.0862100000E-01
   1.7407500000E+00   9.2730100000E-01
   4.8581600000E-01  -2.9716900000E-03
p  3 1.00
   8.3093800000E+00   3.6134400000E-02
   1.7407500000E+00   2.1695800000E-01
   4.8581600000E-01   8.4183900000E-01
s  1 1.00
   1.6361300000E-01   1.0000000000E+00
p  1 1.00
   1.6361300000E-01   1.0000000000E+00
s  1 1.00
   5.6728500000E-02   1.0000000000E+00
p  1 1.00
   5.6728500000E-02   1.0000000000E+00
s  1 1.00
   2.0700000000E-02   1.0000000000E+00
p  1 1.00
   2.0700000000E-02   1.0000000000E+00
d  1 1.00
   2.5500000000E-01   1.0000000000E+00
 
  2 0
s  6 1.00
   1.6828000000E+03   2.2857400000E-03
   2.5171500000E+02   1.7593800000E-02
   5.7411600000E+01   8.6331500000E-02
   1.6517100000E+01   2.8183500000E-01
   4.8536400000E+00   6.4059400000E-01
   6.2686300000E-01   1.4446700000E-01
s  3 1.00
   8.3093800000E+00   1.0862100000E-01
   1.7407500000E+00   9.2730100000E-01
   4.8581600000E-01  -2.9716900000E-03
p  3 1.00
   8.3093800000E+00   3.6134400000E-02
   1.7407500000E+00   2.1695800000E-01
   4.8581600000E-01   8.4183900000E-01
s  1 1.00
   1.6361300000E-01   1.0000000000E+00
p  1 1.00
   1.6361300000E-01   1.0000000000E+00
s  1 1.00
   5.6728500000E-02   1.0000000000E+00
p  1 1.00
   5.6728500000E-02   1.0000000000E+00
s  1 1.00
   2.0700000000E-02   1.0000000000E+00
p  1 1.00
   2.0700000000E-02   1.0000000000E+00
d  1 1.00
   2.5500000000E-01   1.0000000000E+00
 
 
[MO]
Ene=    -4.76155E+00
Spin= Alpha
Occup=   2.0000000000
   1       0.41978514
   2       0.31355876
   3      -0.00000000
   4       0.00000000
   5       0.00435293
   6       0.00327361
   7       0.00000000
   8       0.00000000
   9      -0.00184818
  10       0.00076864
  11      -0.00000000
  12       0.00000000
  13       0.00172979
  14      -0.00007913
  15      -0.00000000
  16      -0.00000000
  17      -0.00113569
  18      -0.00183117
  19      -0.00183117
  20      -0.00088251
  21      -0.00000000
  22       0.00000000
  23       0.00000000
  24       0.41978514
  25       0.31355876
  26       0.00000000
  27       0.00000000
  28      -0.00435293
  29       0.00327361
  30      -0.00000000
  31      -0.00000000
  32       0.00184818
  33       0.00076864
  34       0.00000000
  35       0.00000000
  36      -0.00172979
  37      -0.00007913
  38       0.00000000
  39       0.00000000
  40       0.00113569
  41      -0.00183117
  42      -0.00183117
  43      -0.00088251
  44       0.00000000
  45       0.00000000
  46       0.00000000
Ene=    -4.74841E+00
Spin= Alpha
Occup=   2.0000000000
   1       0.42193971
   2       0.31657695
   3      -0.00000000
   4       0.00000000
   5       0.00292762
   6       0.00739361
   7       0.00000000
   8       0.00000000
   9       0.00543156
  10       0.00471387
  11       0.00000000
  12      -0.00000000
  13       0.00078102
  14      -0.01667796
  15      -0.00000000
  16       0.00000000
  17      -0.00306991
  18      -0.00108443
  19      -0.00108443
  20       0.00234857
  21       0.00000000
  22      -0.00000000
  23       0.00000000
  24      -0.42193971
  25      -0.31657695
  26      -0.00000000
  27       0.00000000
  28       0.00292762
  29      -0.00739361
  30       0.00000000
  31      -0.00000000
  32       0.00543156
  33      -0.00471387
  34      -0.00000000
  35       0.00000000
  36       0.00078102
  37       0.01667796
  38       0.00000000
  39      -0.00000000
  40      -0.00306991
  41       0.00108443
  42       0.00108443
  43      -0.00234857
  44      -0.00000000
  45       0.00000000
  46       0.00000000
Ene=    -4.97897E-01
Spin= Alpha
Occup=   2.0000000000
   1       0.10662966
   2       0.17911379
   3      -0.00000000
   4      -0.00000000
   5      -0.12624202
   6      -0.42554273
   7       0.00000000
   8      -0.00000000
   9      -0.10335166
  10      -0.12711465
  11      -0.00000000
  12       0.00000000
  13      -0.00410373
  14       0.00485551
  15       0.00000000
  16      -0.00000000
  17       0.00707403
  18       0.02297758
  19       0.02297758
  20      -0.01829705
  21       0.00000000
  22       0.00000000
  23      -0.00000000
  24       0.10662966
  25       0.17911379
  26      -0.00000000
  27       0.00000000
  28       0.12624202
  29      -0.42554273
  30      -0.00000000
  31       0.00000000
  32       0.10335166
  33      -0.12711465
  34       0.00000000
  35      -0.00000000
  36       0.00410373
  37       0.00485551
  38      -0.00000000
  39       0.00000000
  40      -0.00707403
  41       0.02297758
  42       0.02297758
  43      -0.01829705
  44      -0.00000000
  45       0.00000000
  46      -0.00000000
Ene=    -2.08510E-01
Spin= Alpha
Occup=   2.0000000000
   1       0.06217373
   2       0.10744714
   3      -0.00000000
   4      -0.00000000
   5       0.08704517
   6      -0.34944847
   7      -0.00000000
   8       0.00000000
   9       0.11436574
  10      -0.94298333
  11      -0.00000000
  12      -0.00000000
  13      -0.03939993
  14      -0.30885228
  15       0.00000000
  16       0.00000000
  17      -0.01741925
  18      -0.01096677
  19      -0.01096677
  20       0.00942592
  21       0.00000000
  22      -0.00000000
  23       0.00000000
  24      -0.06217373
  25      -0.10744714
  26      -0.00000000
  27      -0.00000000
  28       0.08704517
  29       0.34944847
  30      -0.00000000
  31      -0.00000000
  32       0.11436574
  33       0.94298333
  34      -0.00000000
  35       0.00000000
  36      -0.03939993
  37       0.30885228
  38      -0.00000000
  39      -0.00000000
  40      -0.01741925
  41       0.01096677
  42       0.01096677
  43      -0.00942592
  44      -0.00000000
  45       0.00000000
  46       0.00000000
Ene=    -2.44569E-02
Spin= Alpha
Occup=   0.0000000000
   1       0.00000000
   2      -0.00000000
   3       0.02485353
   4      -0.14291067
   5       0.00000000
   6      -0.00000000
   7       0.03707241
   8      -0.21317063
   9      -0.00000000
  10      -0.00000000
  11       0.03286663
  12      -0.18898690
  13       0.00000000
  14       0.00000000
  15       0.02111199
  16      -0.12139635
  17       0.00000000
  18       0.00000000
  19       0.00000000
  20      -0.00000000
  21       0.00000000
  22       0.00601739
  23      -0.03460071
  24      -0.00000000
  25      -0.00000000
  26       0.02485353
  27      -0.14291067
  28      -0.00000000
  29       0.00000000
  30       0.03707241
  31      -0.21317063
  32      -0.00000000
  33       0.00000000
  34       0.03286663
  35      -0.18898690
  36       0.00000000
  37      -0.00000000
  38       0.02111199
  39      -0.12139635
  40       0.00000000
  41      -0.00000000
  42      -0.00000000
  43       0.00000000
  44       0.00000000
  45      -0.00601739
  46       0.03460071
Ene=    -2.44569E-02
Spin= Alpha
Occup=   0.0000000000
   1       0.00000000
   2       0.00000000
   3       0.14291067
   4       0.02485353
   5       0.00000000
   6      -0.00000000
   7       0.21317063
   8       0.03707241
   9      -0.00000000
  10      -0.00000000
  11       0.18898690
  12       0.03286663
  13       0.00000000
  14       0.00000000
  15       0.12139635
  16       0.02111199
  17       0.00000000
  18       0.00000000
  19       0.00000000
  20      -0.00000000
  21      -0.00000000
  22       0.03460071
  23       0.00601739
  24      -0.00000000
  25      -0.00000000
  26       0.14291067
  27       0.02485353
  28       0.00000000
  29       0.00000000
  30       0.21317063
  31       0.03707241
  32      -0.00000000
  33      -0.00000000
  34       0.18898690
  35       0.03286663
  36       0.00000000
  37      -0.00000000
  38       0.12139635
  39       0.02111199
  40       0.00000000
  41      -0.00000000
  42      -0.00000000
  43       0.00000000
  44       0.00000000
  45      -0.03460071
  46      -0.00601739
Ene=    -2.44487E-03
Spin= Alpha
Occup=   0.0000000000
   1      -0.01492211
   2      -0.02779408
   3      -0.00000000
   4       0.00000000
   5       0.15545969
   6      -0.00059073
   7      -0.00000000
   8      -0.00000000
   9       0.22026623
  10       0.01410205
  11       0.00000000
  12       0.00000000
  13       0.15989868
  14      -0.46234711
  15       0.00000000
  16       0.00000000
  17       0.28260911
  18      -0.01628158
  19      -0.01628158
  20       0.00992077
  21      -0.00000000
  22      -0.00000000
  23      -0.00000000
  24      -0.01492211
  25      -0.02779408
  26       0.00000000
  27       0.00000000
  28      -0.15545969
  29      -0.00059073
  30       0.00000000
  31       0.00000000
  32      -0.22026623
  33       0.01410205
  34      -0.00000000
  35      -0.00000000
  36      -0.15989868
  37      -0.46234711
  38      -0.00000000
  39       0.00000000
  40      -0.28260911
  41      -0.01628158
  42      -0.01628158
  43       0.00992077
  44      -0.00000000
  45      -0.00000000
  46      -0.00000000
Ene=     5.12437E-02
Spin= Alpha
Occup=   0.0000000000
   1       0.01607155
   2       0.02403185
   3       0.00000000
   4       0.00000000
   5       0.01779235
   6      -0.57517569
   7      -0.00000000
   8       0.00000000
   9      -0.32434963
  10       3.54408281
  11       0.00000000
  12       0.00000000
  13       1.48227972
  14     -47.85726527
  15      -0.00000000
  16       0.00000000
  17      -9.98554493
  18      -0.00482977
  19      -0.00482977
  20      -0.07972730
  21      -0.00000000
  22       0.00000000
  23       0.00000000
  24      -0.01607155
  25      -0.02403185
  26       0.00000000
  27       0.00000000
  28       0.01779235
  29       0.57517569
  30       0.00000000
  31      -0.00000000
  32      -0.32434963
  33      -3.54408281
  34      -0.00000000
  35       0.00000000
  36       1.48227972
  37      47.85726527
  38       0.00000000
  39      -0.00000000
  40      -9.98554493
  41       0.00482977
  42       0.00482977
  43       0.07972730
  44      -0.00000000
  45      -0.00000000
  46       0.00000000
Ene=     5.81426E-02
Spin= Alpha
Occup=   0.0000000000
   1      -0.00000000
   2      -0.00000000
   3      -0.00138308
   4       0.09231117
   5      -0.00000000
   6      -0.00000000
   7      -0.00054668
   8       0.03648747
   9      -0.00000000
  10       0.00000000
  11      -0.00674582
  12       0.45023735
  13       0.00000000
  14       0.00000000
  15       0.01065687
  16      -0.71127272
  17       0.00000000
  18      -0.00000000
  19      -0.00000000
  20      -0.00000000
  21      -0.00000000
  22      -0.00040752
  23       0.02719906
  24       0.00000000
  25       0.00000000
  26      -0.00138308
  27       0.09231117
  28      -0.00000000
  29      -0.00000000
  30      -0.00054668
  31       0.03648747
  32       0.00000000
  33      -0.00000000
  34      -0.00674582
  35       0.45023735
  36       0.00000000
  37      -0.00000000
  38       0.01065687
  39      -0.71127272
  40       0.00000000
  41       0.00000000
  42       0.00000000
  43       0.00000000
  44      -0.00000000
  45       0.00040752
  46      -0.02719906
Ene=     5.81426E-02
Spin= Alpha
Occup=   0.0000000000
   1       0.00000000
   2       0.00000000
   3      -0.09231117
   4      -0.00138308
   5       0.00000000
   6      -0.00000000
   7      -0.03648747
   8      -0.00054668
   9      -0.00000000
  10       0.00000000
  11      -0.45023735
  12      -0.00674582
  13       0.00000000
  14      -0.00000000
  15       0.71127272
  16       0.01065687
  17      -0.00000000
  18       0.00000000
  19       0.00000000
  20      -0.00000000
  21      -0.00000000
  22      -0.02719906
  23      -0.00040752
  24      -0.00000000
  25      -0.00000000
  26      -0.09231117
  27      -0.00138308
  28       0.00000000
  29       0.00000000
  30      -0.03648747
  31      -0.00054668
  32      -0.00000000
  33      -0.00000000
  34      -0.45023735
  35      -0.00674582
  36       0.00000000
  37       0.00000000
  38       0.71127272
  39       0.01065687
  40      -0.00000000
  41      -0.00000000
  42      -0.00000000
  43       0.00000000
  44       0.00000000
  45       0.02719906
  46       0.00040752
Ene=     6.18129E-02
Spin= Alpha
Occup=   0.0000000000
   1      -0.00000000
   2      -0.00000000
   3       0.00024292
   4       0.01055131
   5       0.00000000
   6       0.00000000
   7       0.00292152
   8       0.12689614
   9       0.00000000
  10      -0.00000000
  11      -0.00760679
  12      -0.33040105
  13      -0.00000000
  14      -0.00000000
  15       0.06786630
  16       2.94777223
  17      -0.00000000
  18      -0.00000000
  19      -0.00000000
  20       0.00000000
  21       0.00000000
  22       0.00006202
  23       0.00269390
  24       0.00000000
  25       0.00000000
  26      -0.00024292
  27      -0.01055131
  28      -0.00000000
  29      -0.00000000
  30      -0.00292152
  31      -0.12689614
  32       0.00000000
  33       0.00000000
  34       0.00760679
  35       0.33040105
  36      -0.00000000
  37       0.00000000
  38      -0.06786630
  39      -2.94777223
  40      -0.00000000
  41       0.00000000
  42       0.00000000
  43      -0.00000000
  44       0.00000000
  45       0.00006202
  46       0.00269390
Ene=     6.18129E-02
Spin= Alpha
Occup=   0.0000000000
   1       0.00000000
   2       0.00000000
   3       0.01055131
   4      -0.00024292
   5       0.00000000
   6      -0.00000000
   7       0.12689614
   8      -0.00292152
   9      -0.00000000
  10       0.00000000
  11      -0.33040105
  12       0.00760679
  13       0.00000000
  14       0.00000000
  15       2.94777223
  16      -0.06786630
  17       0.00000000
  18       0.00000000
  19       0.00000000
  20      -0.00000000
  21       0.00000000
  22       0.00269390
  23      -0.00006202
  24      -0.00000000
  25      -0.00000000
  26      -0.01055131
  27       0.00024292
  28       0.00000000
  29       0.00000000
  30      -0.12689614
  31       0.00292152
  32      -0.00000000
  33      -0.00000000
  34       0.33040105
  35      -0.00760679
  36       0.00000000
  37      -0.00000000
  38      -2.94777223
  39       0.06786630
  40       0.00000000
  41      -0.00000000
  42      -0.00000000
  43       0.00000000
  44      -0.00000000
  45       0.00269390
  46      -0.00006202
Ene=     7.12858E-02
Spin= Alpha
Occup=   0.0000000000
   1       0.01120241
   2       0.02794191
   3      -0.00000000
   4       0.00000000
   5       0.06460426
   6       0.06688090
   7      -0.00000000
   8       0.00000000
   9       0.05940459
  10      -1.13358272
  11      -0.00000000
  12       0.00000000
  13       0.23794144
  14       0.71031990
  15      -0.00000000
  16       0.00000000
  17       1.48693791
  18       0.03811491
  19       0.03811491
  20       0.01382392
  21      -0.00000000
  22      -0.00000000
  23       0.00000000
  24       0.01120241
  25       0.02794191
  26       0.00000000
  27       0.00000000
  28      -0.06460426
  29       0.06688090
  30       0.00000000
  31      -0.00000000
  32      -0.05940459
  33      -1.13358272
  34      -0.00000000
  35       0.00000000
  36      -0.23794144
  37       0.71031990
  38       0.00000000
  39      -0.00000000
  40      -1.48693791
  41       0.03811491
  42       0.03811491
  43       0.01382392
  44      -0.00000000
  45      -0.00000000
  46       0.00000000
Ene=     7.18327E-02
Spin= Alpha
Occup=   0.0000000000
   1      -0.00277748
   2      -0.00309828
   3       0.00000000
   4      -0.00000000
   5       0.13595969
   6       0.00005134
   7       0.00000000
   8      -0.00000000
   9       0.08347557
  10      -0.50594664
  11      -0.00000000
  12       0.00000000
  13       0.70065988
  14       0.70149389
  15       0.00000000
  16      -0.00000000
  17      -1.86263743
  18      -0.00576379
  19      -0.00576379
  20       0.02423752
  21      -0.00000000
  22      -0.00000000
  23       0.00000000
  24      -0.00277748
  25      -0.00309828
  26      -0.00000000
  27      -0.00000000
  28      -0.13595969
  29       0.00005134
  30      -0.00000000
  31       0.00000000
  32      -0.08347557
  33      -0.50594664
  34       0.00000000
  35      -0.00000000
  36      -0.70065988
  37       0.70149389
  38      -0.00000000
  39       0.00000000
  40       1.86263743
  41      -0.00576379
  42      -0.00576379
  43       0.02423752
  44      -0.00000000
  45      -0.00000000
  46       0.00000000
Ene=     1.06990E-01
Spin= Alpha
Occup=   0.0000000000
   1      -0.01499492
   2      -0.03170410
   3      -0.00000000
   4       0.00000000
   5      -0.02050260
   6       0.76337731
   7       0.00000000
   8       0.00000000
   9       0.65205866
  10       0.22983774
  11      -0.00000000
  12       0.00000000
  13      -0.98018974
  14    -108.79038608
  15       0.00000000
  16      -0.00000000
  17     -20.52566645
  18      -0.05311469
  19      -0.05311469
  20       0.11853003
  21      -0.00000000
  22      -0.00000000
  23       0.00000000
  24       0.01499492
  25       0.03170410
  26      -0.00000000
  27       0.00000000
  28      -0.02050260
  29      -0.76337731
  30       0.00000000
  31      -0.00000000
  32       0.65205866
  33      -0.22983775
  34      -0.00000000
  35      -0.00000000
  36      -0.98018974
  37     108.79038608
  38      -0.00000000
  39       0.00000000
  40     -20.52566645
  41       0.05311469
  42       0.05311469
  43      -0.11853003
  44      -0.00000000
  45      -0.00000000
  46       0.00000000
Ene=     1.63452E-01
Spin= Alpha
Occup=   0.0000000000
   1      -0.00000000
   2      -0.00000000
   3      -0.11280909
   4       0.00754232
   5      -0.00000000
   6      -0.00000000
   7      -0.02964715
   8       0.00198218
   9      -0.00000000
  10       0.00000000
  11      -2.02723410
  12       0.13553911
  13       0.00000000
  14      -0.00000000
  15       2.06267637
  16      -0.13790875
  17      -0.00000000
  18       0.00000000
  19       0.00000000
  20      -0.00000000
  21      -0.00000000
  22       0.03001148
  23      -0.00200654
  24       0.00000000
  25       0.00000000
  26       0.11280909
  27      -0.00754232
  28      -0.00000000
  29       0.00000000
  30       0.02964715
  31      -0.00198218
  32      -0.00000000
  33      -0.00000000
  34       2.02723410
  35      -0.13553911
  36       0.00000000
  37       0.00000000
  38      -2.06267637
  39       0.13790875
  40      -0.00000000
  41       0.00000000
  42       0.00000000
  43       0.00000000
  44      -0.00000000
  45       0.03001148
  46      -0.00200654
Ene=     1.63452E-01
Spin= Alpha
Occup=   0.0000000000
   1       0.00000000
   2       0.00000000
   3       0.00754232
   4       0.11280909
   5       0.00000000
   6      -0.00000000
   7       0.00198218
   8       0.02964715
   9      -0.00000000
  10       0.00000000
  11       0.13553911
  12       2.02723410
  13       0.00000000
  14       0.00000000
  15      -0.13790875
  16      -2.06267637
  17       0.00000000
  18      -0.00000000
  19      -0.00000000
  20      -0.00000000
  21       0.00000000
  22      -0.00200654
  23      -0.03001148
  24      -0.00000000
  25      -0.00000000
  26      -0.00754232
  27      -0.11280909
  28       0.00000000
  29       0.00000000
  30      -0.00198218
  31      -0.02964715
  32      -0.00000000
  33      -0.00000000
  34      -0.13553911
  35      -2.02723410
  36       0.00000000
  37      -0.00000000
  38       0.13790875
  39       2.06267637
  40       0.00000000
  41      -0.00000000
  42       0.00000000
  43       0.00000000
  44      -0.00000000
  45      -0.00200654
  46      -0.03001148
Ene=     2.30312E-01
Spin= Alpha
Occup=   0.0000000000
   1       0.02826089
   2       0.06575857
   3      -0.00000000
   4       0.00000000
   5       0.05103191
   6       1.78912172
   7      -0.00000000
   8      -0.00000000
   9       1.49078635
  10     -22.63607734
  11       0.00000000
  12       0.00000000
  13      -8.53326268
  14      12.98716750
  15      -0.00000000
  16      -0.00000000
  17       3.07423614
  18      -0.02666673
  19      -0.02666673
  20       0.35746971
  21      -0.00000000
  22      -0.00000000
  23      -0.00000000
  24      -0.02826089
  25      -0.06575857
  26      -0.00000000
  27      -0.00000000
  28       0.05103191
  29      -1.78912172
  30       0.00000000
  31       0.00000000
  32       1.49078635
  33      22.63607734
  34      -0.00000000
  35      -0.00000000
  36      -8.53326268
  37     -12.98716750
  38       0.00000000
  39       0.00000000
  40       3.07423614
  41       0.02666673
  42       0.02666673
  43      -0.35746971
  44       0.00000000
  45       0.00000000
  46      -0.00000000
Ene=     2.59556E-01
Spin= Alpha
Occup=   0.0000000000
   1      -0.03249425
   2      -0.04340980
   3      -0.00000000
   4      -0.00000000
   5       0.11555098
   6       0.69765419
   7      -0.00000000
   8      -0.00000000
   9       0.31046627
  10      -0.80623935
  11       0.00000000
  12       0.00000000
  13      -1.75805652
  14       0.13852516
  15      -0.00000000
  16      -0.00000000
  17       1.49541211
  18       0.08557145
  19       0.08557145
  20       0.06840632
  21      -0.00000000
  22      -0.00000000
  23      -0.00000000
  24      -0.03249425
  25      -0.04340980
  26      -0.00000000
  27      -0.00000000
  28      -0.11555098
  29       0.69765419
  30      -0.00000000
  31      -0.00000000
  32      -0.31046627
  33      -0.80623935
  34       0.00000000
  35       0.00000000
  36       1.75805652
  37       0.13852516
  38       0.00000000
  39      -0.00000000
  40      -1.49541211
  41       0.08557145
  42       0.08557145
  43       0.06840632
  44       0.00000000
  45       0.00000000
  46      -0.00000000
Ene=     2.71238E-01
Spin= Alpha
Occup=   0.0000000000
   1      -0.00000000
   2      -0.00000000
   3      -0.11162386
   4      -0.02777890
   5      -0.00000000
   6      -0.00000000
   7      -0.68602971
   8      -0.17072651
   9      -0.00000000
  10      -0.00000000
  11       1.06158710
  12       0.26418835
  13      -0.00000000
  14      -0.00000000
  15      -0.45814825
  16      -0.11401555
  17      -0.00000000
  18       0.00000000
  19       0.00000000
  20      -0.00000000
  21      -0.00000000
  22      -0.03748499
  23      -0.00932858
  24       0.00000000
  25       0.00000000
  26      -0.11162386
  27      -0.02777890
  28      -0.00000000
  29       0.00000000
  30      -0.68602971
  31      -0.17072651
  32      -0.00000000
  33       0.00000000
  34       1.06158710
  35       0.26418835
  36      -0.00000000
  37       0.00000000
  38      -0.45814825
  39      -0.11401555
  40      -0.00000000
  41      -0.00000000
  42      -0.00000000
  43       0.00000000
  44      -0.00000000
  45       0.03748499
  46       0.00932858
Ene=     2.71238E-01
Spin= Alpha
Occup=   0.0000000000
   1      -0.00000000
   2      -0.00000000
   3      -0.02777890
   4       0.11162386
   5      -0.00000000
   6      -0.00000000
   7      -0.17072651
   8       0.68602971
   9      -0.00000000
  10       0.00000000
  11       0.26418835
  12      -1.06158710
  13       0.00000000
  14      -0.00000000
  15      -0.11401555
  16       0.45814825
  17      -0.00000000
  18       0.00000000
  19       0.00000000
  20      -0.00000000
  21       0.00000000
  22      -0.00932858
  23       0.03748499
  24       0.00000000
  25       0.00000000
  26      -0.02777890
  27       0.11162386
  28      -0.00000000
  29       0.00000000
  30      -0.17072651
  31       0.68602971
  32      -0.00000000
  33      -0.00000000
  34       0.26418835
  35      -1.06158710
  36       0.00000000
  37       0.00000000
  38      -0.11401555
  39       0.45814825
  40      -0.00000000
  41      -0.00000000
  42      -0.00000000
  43       0.00000000
  44       0.00000000
  45       0.00932858
  46      -0.03748499
Ene=     3.31253E-01
Spin= Alpha
Occup=   0.0000000000
   1      -0.05158929
   2      -0.06341707
   3       0.00000000
   4       0.00000000
   5      -0.09962158
   6       1.16740329
   7      -0.00000000
   8      -0.00000000
   9      -0.61548898
  10      -1.94127433
  11       0.00000000
  12       0.00000000
  13       0.75427547
  14       0.72720809
  15      -0.00000000
  16      -0.00000000
  17      -0.02743176
  18       0.14889903
  19       0.14889903
  20       0.10981158
  21       0.00000000
  22      -0.00000000
  23      -0.00000000
  24      -0.05158929
  25      -0.06341707
  26      -0.00000000
  27      -0.00000000
  28       0.09962158
  29       1.16740329
  30      -0.00000000
  31       0.00000000
  32       0.61548898
  33      -1.94127433
  34       0.00000000
  35      -0.00000000
  36      -0.75427547
  37       0.72720809
  38       0.00000000
  39       0.00000000
  40       0.02743176
  41       0.14889903
  42       0.14889903
  43       0.10981158
  44      -0.00000000
  45      -0.00000000
  46      -0.00000000
Ene=     3.74987E-01
Spin= Alpha
Occup=   0.0000000000
   1      -0.04500098
   2      -0.05726648
   3       0.00000000
   4       0.00000000
   5      -0.11022012
   6      -2.16778475
   7       0.00000000
   8      -0.00000000
   9      -3.17835876
  10     -17.74047992
  11       0.00000000
  12      -0.00000000
  13      -4.14301105
  14      54.16135088
  15      -0.00000000
  16       0.00000000
  17      10.07839082
  18       0.25327740
  19       0.25327740
  20      -0.45398990
  21       0.00000000
  22       0.00000000
  23      -0.00000000
  24       0.04500098
  25       0.05726648
  26       0.00000000
  27      -0.00000000
  28      -0.11022012
  29       2.16778475
  30       0.00000000
  31      -0.00000000
  32      -3.17835876
  33      17.74047992
  34      -0.00000000
  35       0.00000000
  36      -4.14301105
  37     -54.16135088
  38       0.00000000
  39      -0.00000000
  40      10.07839082
  41      -0.25327740
  42      -0.25327740
  43       0.45398990
  44       0.00000000
  45       0.00000000
  46      -0.00000000
Ene=     4.05238E-01
Spin= Alpha
Occup=   0.0000000000
   1       0.00000000
   2       0.00000000
   3       0.12112606
   4       0.10936922
   5       0.00000000
   6       0.00000000
   7       0.99101248
   8       0.89482202
   9       0.00000000
  10       0.00000000
  11      -1.66228870
  12      -1.50094228
  13      -0.00000000
  14      -0.00000000
  15       1.02447221
  16       0.92503405
  17      -0.00000000
  18      -0.00000000
  19      -0.00000000
  20       0.00000000
  21       0.00000000
  22       0.03664509
  23       0.03308822
  24      -0.00000000
  25      -0.00000000
  26      -0.12112606
  27      -0.10936922
  28       0.00000000
  29      -0.00000000
  30      -0.99101248
  31      -0.89482202
  32       0.00000000
  33      -0.00000000
  34       1.66228870
  35       1.50094228
  36      -0.00000000
  37       0.00000000
  38      -1.02447221
  39      -0.92503405
  40      -0.00000000
  41       0.00000000
  42       0.00000000
  43      -0.00000000
  44      -0.00000000
  45       0.03664509
  46       0.03308822
Ene=     4.05238E-01
Spin= Alpha
Occup=   0.0000000000
   1      -0.00000000
   2      -0.00000000
   3       0.10936922
   4      -0.12112606
   5      -0.00000000
   6      -0.00000000
   7       0.89482202
   8      -0.99101248
   9      -0.00000000
  10      -0.00000000
  11      -1.50094228
  12       1.66228870
  13      -0.00000000
  14       0.00000000
  15       0.92503405
  16      -1.02447221
  17       0.00000000
  18       0.00000000
  19       0.00000000
  20      -0.00000000
  21       0.00000000
  22       0.03308822
  23      -0.03664509
  24       0.00000000
  25       0.00000000
  26      -0.10936922
  27       0.12112606
  28      -0.00000000
  29       0.00000000
  30      -0.89482202
  31       0.99101248
  32      -0.00000000
  33       0.00000000
  34       1.50094228
  35      -1.66228870
  36      -0.00000000
  37      -0.00000000
  38      -0.92503405
  39       1.02447221
  40       0.00000000
  41      -0.00000000
  42      -0.00000000
  43       0.00000000
  44      -0.00000000
  45       0.03308822
  46      -0.03664509
Ene=     5.68145E-01
Spin= Alpha
Occup=   0.0000000000
   1       0.00000000
   2      -0.00000000
   3      -0.00000000
   4       0.00000000
   5      -0.00000000
   6      -0.00000000
   7      -0.00000000
   8      -0.00000000
   9      -0.00000000
  10      -0.00000000
  11       0.00000000
  12      -0.00000000
  13      -0.00000000
  14       0.00000000
  15      -0.00000000
  16       0.00000000
  17       0.00000000
  18       0.08705317
  19      -0.08705317
  20      -0.00000000
  21      -0.58644759
  22       0.00000000
  23      -0.00000000
  24       0.00000000
  25       0.00000000
  26       0.00000000
  27      -0.00000000
  28      -0.00000000
  29       0.00000000
  30       0.00000000
  31       0.00000000
  32      -0.00000000
  33       0.00000000
  34      -0.00000000
  35       0.00000000
  36      -0.00000000
  37      -0.00000000
  38       0.00000000
  39      -0.00000000
  40       0.00000000
  41       0.08705317
  42      -0.08705317
  43       0.00000000
  44      -0.58644759
  45      -0.00000000
  46      -0.00000000
Ene=     5.68145E-01
Spin= Alpha
Occup=   0.0000000000
   1      -0.00000000
   2      -0.00000000
   3       0.00000000
   4      -0.00000000
   5      -0.00000000
   6      -0.00000000
   7      -0.00000000
   8       0.00000000
   9      -0.00000000
  10      -0.00000000
  11       0.00000000
  12       0.00000000
  13      -0.00000000
  14       0.00000000
  15      -0.00000000