 Molden2AIM, Version 3.1.0 (02/25/2015)           Time: Mon Nov 25 15:42:47 2024
GAUSSIAN             46 MOL ORBITALS     72 PRIMITIVES        2 NUCLEI
  Be   1    (CENTRE  1)   0.00000000  0.00000000  0.00000000  CHARGE =  4.0
  Be   2    (CENTRE  2)   0.00000000  0.00000000  2.63600000  CHARGE =  4.0
CENTRE ASSIGNMENTS    1  1  1  1  1  1  1  1  1  1  1  1  1  1  1  1  1  1  1  1
CENTRE ASSIGNMENTS    1  1  1  1  1  1  1  1  1  1  1  1  1  1  1  1  2  2  2  2
CENTRE ASSIGNMENTS    2  2  2  2  2  2  2  2  2  2  2  2  2  2  2  2  2  2  2  2
CENTRE ASSIGNMENTS    2  2  2  2  2  2  2  2  2  2  2  2
TYPE ASSIGNMENTS      1  1  1  1  1  1  1  1  1  2  2  2  3  3  3  4  4  4  1  2
TYPE ASSIGNMENTS      3  4  1  2  3  4  1  2  3  4  5  6  7  8  9 10  1  1  1  1
TYPE ASSIGNMENTS      1  1  1  1  1  2  2  2  3  3  3  4  4  4  1  2  3  4  1  2
TYPE ASSIGNMENTS      3  4  1  2  3  4  5  6  7  8  9 10
EXPONENTS  0.1682800D+04 0.2517150D+03 0.5741160D+02 0.1651710D+02 0.4853640D+01
EXPONENTS  0.6268630D+00 0.8309380D+01 0.1740750D+01 0.4858160D+00 0.8309380D+01
EXPONENTS  0.1740750D+01 0.4858160D+00 0.8309380D+01 0.1740750D+01 0.4858160D+00
EXPONENTS  0.8309380D+01 0.1740750D+01 0.4858160D+00 0.1636130D+00 0.1636130D+00
EXPONENTS  0.1636130D+00 0.1636130D+00 0.5672850D-01 0.5672850D-01 0.5672850D-01
EXPONENTS  0.5672850D-01 0.2070000D-01 0.2070000D-01 0.2070000D-01 0.2070000D-01
EXPONENTS  0.2550000D+00 0.2550000D+00 0.2550000D+00 0.2550000D+00 0.2550000D+00
EXPONENTS  0.2550000D+00 0.1682800D+04 0.2517150D+03 0.5741160D+02 0.1651710D+02
EXPONENTS  0.4853640D+01 0.6268630D+00 0.8309380D+01 0.1740750D+01 0.4858160D+00
EXPONENTS  0.8309380D+01 0.1740750D+01 0.4858160D+00 0.8309380D+01 0.1740750D+01
EXPONENTS  0.4858160D+00 0.8309380D+01 0.1740750D+01 0.4858160D+00 0.1636130D+00
EXPONENTS  0.1636130D+00 0.1636130D+00 0.1636130D+00 0.5672850D-01 0.5672850D-01
EXPONENTS  0.5672850D-01 0.5672850D-01 0.2070000D-01 0.2070000D-01 0.2070000D-01
EXPONENTS  0.2070000D-01 0.2550000D+00 0.2550000D+00 0.2550000D+00 0.2550000D+00
EXPONENTS  0.2550000D+00 0.2550000D+00
MO    1     MO 0.0        OCC NO =    2.0000000  ORB. ENERGY =   -4.761550
  0.17967533D+00  0.33264326D+00  0.53871154D+00  0.69084804D+00  0.62671601D+00
  0.30449866D-01  0.11880082D+00  0.31405245D+00 -0.38644396D-03 -0.00000000D+00
 -0.00000000D+00 -0.00000000D+00  0.00000000D+00  0.00000000D+00  0.00000000D+00
  0.31630309D-02  0.26916463D-02  0.21185593D-02  0.60020608D-03  0.00000000D+00
  0.00000000D+00 -0.27413003D-03  0.63677213D-04 -0.00000000D+00  0.00000000D+00
  0.68262957D-04 -0.30777194D-05 -0.00000000D+00 -0.00000000D+00 -0.12710505D-04
 -0.27579313D-03 -0.27579313D-03 -0.13291513D-03 -0.00000000D+00  0.00000000D+00
  0.00000000D+00  0.17967533D+00  0.33264326D+00  0.53871154D+00  0.69084804D+00
  0.62671601D+00  0.30449866D-01  0.11880082D+00  0.31405245D+00 -0.38644396D-03
  0.00000000D+00  0.00000000D+00  0.00000000D+00  0.00000000D+00  0.00000000D+00
  0.00000000D+00 -0.31630309D-02 -0.26916463D-02 -0.21185593D-02  0.60020608D-03
 -0.00000000D+00 -0.00000000D+00  0.27413003D-03  0.63677213D-04  0.00000000D+00
  0.00000000D+00 -0.68262957D-04 -0.30777194D-05  0.00000000D+00  0.00000000D+00
  0.12710505D-04 -0.27579313D-03 -0.27579313D-03 -0.13291513D-03  0.00000000D+00
  0.00000000D+00  0.00000000D+00
MO    2     MO 0.0        OCC NO =    2.0000000  ORB. ENERGY =   -4.748410
  0.18059753D+00  0.33435057D+00  0.54147651D+00  0.69439385D+00  0.62993267D+00
  0.30606152D-01  0.11994434D+00  0.31707540D+00 -0.39016371D-03 -0.00000000D+00
 -0.00000000D+00 -0.00000000D+00  0.00000000D+00  0.00000000D+00  0.00000000D+00
  0.21273378D-02  0.18103019D-02  0.14248647D-02  0.13555951D-02  0.00000000D+00
  0.00000000D+00  0.80563241D-03  0.39051585D-03  0.00000000D+00 -0.00000000D+00
  0.30821507D-04 -0.64868041D-03 -0.00000000D+00  0.00000000D+00 -0.34358062D-04
 -0.16332636D-03 -0.16332636D-03  0.35371891D-03  0.00000000D+00 -0.00000000D+00
  0.00000000D+00 -0.18059753D+00 -0.33435057D+00 -0.54147651D+00 -0.69439385D+00
 -0.62993267D+00 -0.30606152D-01 -0.11994434D+00 -0.31707540D+00  0.39016371D-03
 -0.00000000D+00 -0.00000000D+00 -0.00000000D+00  0.00000000D+00  0.00000000D+00
  0.00000000D+00  0.21273378D-02  0.18103019D-02  0.14248647D-02 -0.13555951D-02
  0.00000000D+00 -0.00000000D+00  0.80563241D-03 -0.39051585D-03 -0.00000000D+00
  0.00000000D+00  0.30821507D-04  0.64868041D-03  0.00000000D+00 -0.00000000D+00
 -0.34358062D-04  0.16332636D-03  0.16332636D-03 -0.35371891D-03 -0.00000000D+00
  0.00000000D+00  0.00000000D+00
MO    3     MO 0.0        OCC NO =    2.0000000  ORB. ENERGY =   -0.497897
  0.45639347D-01  0.84494743D-01  0.13683817D+00  0.17548237D+00  0.15919219D+00
  0.77345731D-02  0.67862446D-01  0.17939580D+00 -0.22074791D-03 -0.00000000D+00
 -0.00000000D+00 -0.00000000D+00 -0.00000000D+00 -0.00000000D+00 -0.00000000D+00
 -0.91733019D-01 -0.78062101D-01 -0.61441650D-01 -0.78021918D-01  0.00000000D+00
 -0.00000000D+00 -0.15329564D-01 -0.10530686D-01 -0.00000000D+00  0.00000000D+00
 -0.16194610D-03  0.18885249D-03  0.00000000D+00 -0.00000000D+00  0.79171690D-04
  0.34606610D-02  0.34606610D-02 -0.27557248D-02  0.00000000D+00  0.00000000D+00
 -0.00000000D+00  0.45639347D-01  0.84494743D-01  0.13683817D+00  0.17548237D+00
  0.15919219D+00  0.77345731D-02  0.67862446D-01  0.17939580D+00 -0.22074791D-03
 -0.00000000D+00 -0.00000000D+00 -0.00000000D+00  0.00000000D+00  0.00000000D+00
  0.00000000D+00  0.91733019D-01  0.78062101D-01  0.61441650D-01 -0.78021918D-01
 -0.00000000D+00  0.00000000D+00  0.15329564D-01 -0.10530686D-01  0.00000000D+00
 -0.00000000D+00  0.16194610D-03  0.18885249D-03 -0.00000000D+00  0.00000000D+00
 -0.79171690D-04  0.34606610D-02  0.34606610D-02 -0.27557248D-02 -0.00000000D+00
  0.00000000D+00 -0.00000000D+00
MO    4     MO 0.0        OCC NO =    2.0000000  ORB. ENERGY =   -0.208510
  0.26611437D-01  0.49267280D-01  0.79787736D-01  0.10232044D+00  0.92821943D-01
  0.45098827D-02  0.40709460D-01  0.10761631D+00 -0.13242270D-03 -0.00000000D+00
 -0.00000000D+00 -0.00000000D+00 -0.00000000D+00 -0.00000000D+00 -0.00000000D+00
  0.63250859D-01  0.53824621D-01  0.42364649D-01 -0.64070276D-01 -0.00000000D+00
  0.00000000D+00  0.16963220D-01 -0.78120512D-01 -0.00000000D+00 -0.00000000D+00
 -0.15548452D-02 -0.12012646D-01  0.00000000D+00  0.00000000D+00 -0.19495414D-03
 -0.16517089D-02 -0.16517089D-02  0.14196410D-02  0.00000000D+00 -0.00000000D+00
  0.00000000D+00 -0.26611437D-01 -0.49267280D-01 -0.79787736D-01 -0.10232044D+00
 -0.92821943D-01 -0.45098827D-02 -0.40709460D-01 -0.10761631D+00  0.13242270D-03
 -0.00000000D+00 -0.00000000D+00 -0.00000000D+00 -0.00000000D+00 -0.00000000D+00
 -0.00000000D+00  0.63250859D-01  0.53824621D-01  0.42364649D-01  0.64070276D-01
 -0.00000000D+00 -0.00000000D+00  0.16963220D-01  0.78120512D-01 -0.00000000D+00
  0.00000000D+00 -0.15548452D-02  0.12012646D-01 -0.00000000D+00 -0.00000000D+00
 -0.19495414D-03  0.16517089D-02  0.16517089D-02 -0.14196410D-02 -0.00000000D+00
  0.00000000D+00  0.00000000D+00
MO    5     MO 0.0        OCC NO =    0.0000000  ORB. ENERGY =   -0.024457
  0.00000000D+00  0.00000000D+00  0.00000000D+00  0.00000000D+00  0.00000000D+00
  0.00000000D+00 -0.00000000D+00 -0.00000000D+00  0.00000000D+00  0.18059671D-01
  0.15368249D-01  0.12096146D-01 -0.10384519D+00 -0.88369207D-01 -0.69554237D-01
  0.00000000D+00  0.00000000D+00  0.00000000D+00 -0.00000000D+00  0.54987398D-02
 -0.31618387D-01 -0.00000000D+00 -0.00000000D+00  0.12970206D-02 -0.74580178D-02
  0.00000000D+00  0.00000000D+00  0.23628284D-03 -0.13586533D-02  0.00000000D+00
  0.00000000D+00  0.00000000D+00 -0.00000000D+00  0.00000000D+00  0.15697249D-02
 -0.90261056D-02 -0.00000000D+00 -0.00000000D+00 -0.00000000D+00 -0.00000000D+00
 -0.00000000D+00 -0.00000000D+00 -0.00000000D+00 -0.00000000D+00  0.00000000D+00
  0.18059671D-01  0.15368249D-01  0.12096146D-01 -0.10384519D+00 -0.88369207D-01
 -0.69554237D-01 -0.00000000D+00 -0.00000000D+00 -0.00000000D+00  0.00000000D+00
  0.54987398D-02 -0.31618387D-01 -0.00000000D+00  0.00000000D+00  0.12970206D-02
 -0.74580178D-02  0.00000000D+00 -0.00000000D+00  0.23628284D-03 -0.13586533D-02
  0.00000000D+00 -0.00000000D+00 -0.00000000D+00  0.00000000D+00  0.00000000D+00
 -0.15697249D-02  0.90261056D-02
MO    6     MO 0.0        OCC NO =    0.0000000  ORB. ENERGY =   -0.024457
  0.00000000D+00  0.00000000D+00  0.00000000D+00  0.00000000D+00  0.00000000D+00
  0.00000000D+00  0.00000000D+00  0.00000000D+00 -0.00000000D+00  0.10384519D+00
  0.88369207D-01  0.69554237D-01  0.18059671D-01  0.15368249D-01  0.12096146D-01
  0.00000000D+00  0.00000000D+00  0.00000000D+00 -0.00000000D+00  0.31618387D-01
  0.54987398D-02 -0.00000000D+00 -0.00000000D+00  0.74580178D-02  0.12970206D-02
  0.00000000D+00  0.00000000D+00  0.13586533D-02  0.23628284D-03  0.00000000D+00
  0.00000000D+00  0.00000000D+00 -0.00000000D+00 -0.00000000D+00  0.90261056D-02
  0.15697249D-02 -0.00000000D+00 -0.00000000D+00 -0.00000000D+00 -0.00000000D+00
 -0.00000000D+00 -0.00000000D+00 -0.00000000D+00 -0.00000000D+00  0.00000000D+00
  0.10384519D+00  0.88369207D-01  0.69554237D-01  0.18059671D-01  0.15368249D-01
  0.12096146D-01  0.00000000D+00  0.00000000D+00  0.00000000D+00  0.00000000D+00
  0.31618387D-01  0.54987398D-02 -0.00000000D+00 -0.00000000D+00  0.74580178D-02
  0.12970206D-02  0.00000000D+00 -0.00000000D+00  0.13586533D-02  0.23628284D-03
  0.00000000D+00 -0.00000000D+00 -0.00000000D+00  0.00000000D+00  0.00000000D+00
 -0.90261056D-02 -0.15697249D-02
MO    7     MO 0.0        OCC NO =    0.0000000  ORB. ENERGY =   -0.002445
 -0.63869224D-02 -0.11824476D-01 -0.19149589D-01 -0.24557588D-01 -0.22277886D-01
 -0.10824019D-02 -0.10530592D-01 -0.27837841D-01  0.34254678D-04 -0.00000000D+00
 -0.00000000D+00 -0.00000000D+00  0.00000000D+00  0.00000000D+00  0.00000000D+00
  0.11296387D+00  0.96128928D-01  0.75661811D-01 -0.10830848D-03 -0.00000000D+00
 -0.00000000D+00  0.32670837D-01  0.11682703D-02  0.00000000D+00  0.00000000D+00
  0.63101051D-02 -0.17982746D-01  0.00000000D+00  0.00000000D+00  0.31629271D-02
 -0.24521742D-02 -0.24521742D-02  0.14941705D-02 -0.00000000D+00 -0.00000000D+00
 -0.00000000D+00 -0.63869224D-02 -0.11824476D-01 -0.19149589D-01 -0.24557588D-01
 -0.22277886D-01 -0.10824019D-02 -0.10530592D-01 -0.27837841D-01  0.34254678D-04
  0.00000000D+00  0.00000000D+00  0.00000000D+00  0.00000000D+00  0.00000000D+00
  0.00000000D+00 -0.11296387D+00 -0.96128928D-01 -0.75661811D-01 -0.10830848D-03
  0.00000000D+00  0.00000000D+00 -0.32670837D-01  0.11682703D-02 -0.00000000D+00
 -0.00000000D+00 -0.63101051D-02 -0.17982746D-01 -0.00000000D+00  0.00000000D+00
 -0.31629271D-02 -0.24521742D-02 -0.24521742D-02  0.14941705D-02 -0.00000000D+00
 -0.00000000D+00 -0.00000000D+00
MO    8     MO 0.0        OCC NO =    0.0000000  ORB. ENERGY =    0.051244
  0.68789026D-02  0.12735307D-01  0.20624669D-01  0.26449242D-01  0.23993936D-01
  0.11657786D-02  0.91051622D-02  0.24069688D-01 -0.29617936D-04  0.00000000D+00
  0.00000000D+00  0.00000000D+00  0.00000000D+00  0.00000000D+00  0.00000000D+00
  0.12928706D-01  0.11001949D-01  0.86594887D-02 -0.10545665D+00 -0.00000000D+00
  0.00000000D+00 -0.48108936D-01  0.29360600D+00  0.00000000D+00  0.00000000D+00
  0.58495422D-01 -0.18613829D+01 -0.00000000D+00  0.00000000D+00 -0.11175701D+00
 -0.72741327D-03 -0.72741327D-03 -0.12007755D-01 -0.00000000D+00  0.00000000D+00
  0.00000000D+00 -0.68789026D-02 -0.12735307D-01 -0.20624669D-01 -0.26449242D-01
 -0.23993936D-01 -0.11657786D-02 -0.91051622D-02 -0.24069688D-01  0.29617936D-04
  0.00000000D+00  0.00000000D+00  0.00000000D+00  0.00000000D+00  0.00000000D+00
  0.00000000D+00  0.12928706D-01  0.11001949D-01  0.86594887D-02  0.10545665D+00
  0.00000000D+00 -0.00000000D+00 -0.48108936D-01 -0.29360600D+00 -0.00000000D+00
  0.00000000D+00  0.58495422D-01  0.18613829D+01  0.00000000D+00 -0.00000000D+00
 -0.11175701D+00  0.72741327D-03  0.72741327D-03  0.12007755D-01 -0.00000000D+00
 -0.00000000D+00  0.00000000D+00
MO    9     MO 0.0        OCC NO =    0.0000000  ORB. ENERGY =    0.058143
 -0.00000000D+00 -0.00000000D+00 -0.00000000D+00 -0.00000000D+00 -0.00000000D+00
 -0.00000000D+00 -0.00000000D+00 -0.00000000D+00  0.00000000D+00 -0.10050069D-02
 -0.85523133D-03 -0.67314130D-03  0.67077367D-01  0.57080866D-01  0.44927597D-01
 -0.00000000D+00 -0.00000000D+00 -0.00000000D+00 -0.00000000D+00 -0.81085936D-04
  0.54119789D-02 -0.00000000D+00  0.00000000D+00 -0.26621129D-03  0.17767783D-01
  0.00000000D+00  0.00000000D+00  0.11927040D-03 -0.79604785D-02  0.00000000D+00
 -0.00000000D+00 -0.00000000D+00 -0.00000000D+00 -0.00000000D+00 -0.10630760D-03
  0.70952760D-02  0.00000000D+00  0.00000000D+00  0.00000000D+00  0.00000000D+00
  0.00000000D+00  0.00000000D+00  0.00000000D+00  0.00000000D+00 -0.00000000D+00
 -0.10050069D-02 -0.85523133D-03 -0.67314130D-03  0.67077367D-01  0.57080866D-01
  0.44927597D-01 -0.00000000D+00 -0.00000000D+00 -0.00000000D+00 -0.00000000D+00
 -0.81085936D-04  0.54119789D-02  0.00000000D+00 -0.00000000D+00 -0.26621129D-03
  0.17767783D-01  0.00000000D+00 -0.00000000D+00  0.11927040D-03 -0.79604785D-02
  0.00000000D+00  0.00000000D+00  0.00000000D+00  0.00000000D+00 -0.00000000D+00
  0.10630760D-03 -0.70952760D-02
MO   10     MO 0.0        OCC NO =    0.0000000  ORB. ENERGY =    0.058143
  0.00000000D+00  0.00000000D+00  0.00000000D+00  0.00000000D+00  0.00000000D+00
  0.00000000D+00  0.00000000D+00  0.00000000D+00 -0.00000000D+00 -0.67077367D-01
 -0.57080866D-01 -0.44927597D-01 -0.10050069D-02 -0.85523133D-03 -0.67314130D-03
  0.00000000D+00  0.00000000D+00  0.00000000D+00 -0.00000000D+00 -0.54119789D-02
 -0.81085936D-04 -0.00000000D+00  0.00000000D+00 -0.17767783D-01 -0.26621129D-03
  0.00000000D+00 -0.00000000D+00  0.79604785D-02  0.11927040D-03 -0.00000000D+00
  0.00000000D+00  0.00000000D+00 -0.00000000D+00 -0.00000000D+00 -0.70952760D-02
 -0.10630760D-03 -0.00000000D+00 -0.00000000D+00 -0.00000000D+00 -0.00000000D+00
 -0.00000000D+00 -0.00000000D+00 -0.00000000D+00 -0.00000000D+00  0.00000000D+00
 -0.67077367D-01 -0.57080866D-01 -0.44927597D-01 -0.10050069D-02 -0.85523133D-03
 -0.67314130D-03  0.00000000D+00  0.00000000D+00  0.00000000D+00  0.00000000D+00
 -0.54119789D-02 -0.81085936D-04 -0.00000000D+00 -0.00000000D+00 -0.17767783D-01
 -0.26621129D-03  0.00000000D+00  0.00000000D+00  0.79604785D-02  0.11927040D-03
 -0.00000000D+00 -0.00000000D+00 -0.00000000D+00  0.00000000D+00  0.00000000D+00
  0.70952760D-02  0.10630760D-03
MO   11     MO 0.0        OCC NO =    0.0000000  ORB. ENERGY =    0.061813
 -0.00000000D+00 -0.00000000D+00 -0.00000000D+00 -0.00000000D+00 -0.00000000D+00
 -0.00000000D+00 -0.00000000D+00 -0.00000000D+00  0.00000000D+00  0.17651638D-03
  0.15021025D-03  0.11822851D-03  0.76670471D-02  0.65244316D-02  0.51352941D-02
  0.00000000D+00  0.00000000D+00  0.00000000D+00  0.00000000D+00  0.43333245D-03
  0.18821783D-01  0.00000000D+00 -0.00000000D+00 -0.30018787D-03 -0.13038665D-01
 -0.00000000D+00 -0.00000000D+00  0.75955144D-03  0.32991111D-01 -0.00000000D+00
 -0.00000000D+00 -0.00000000D+00  0.00000000D+00  0.00000000D+00  0.16178832D-04
  0.70274355D-03  0.00000000D+00  0.00000000D+00  0.00000000D+00  0.00000000D+00
  0.00000000D+00  0.00000000D+00  0.00000000D+00  0.00000000D+00 -0.00000000D+00
 -0.17651638D-03 -0.15021025D-03 -0.11822851D-03 -0.76670471D-02 -0.65244316D-02
 -0.51352941D-02 -0.00000000D+00 -0.00000000D+00 -0.00000000D+00 -0.00000000D+00
 -0.43333245D-03 -0.18821783D-01  0.00000000D+00  0.00000000D+00  0.30018787D-03
  0.13038665D-01 -0.00000000D+00  0.00000000D+00 -0.75955144D-03 -0.32991111D-01
 -0.00000000D+00  0.00000000D+00  0.00000000D+00 -0.00000000D+00  0.00000000D+00
  0.16178832D-04  0.70274355D-03
MO   12     MO 0.0        OCC NO =    0.0000000  ORB. ENERGY =    0.061813
  0.00000000D+00  0.00000000D+00  0.00000000D+00  0.00000000D+00  0.00000000D+00
  0.00000000D+00  0.00000000D+00  0.00000000D+00 -0.00000000D+00  0.76670471D-02
  0.65244316D-02  0.51352941D-02 -0.17651638D-03 -0.15021025D-03 -0.11822851D-03
  0.00000000D+00  0.00000000D+00  0.00000000D+00 -0.00000000D+00  0.18821783D-01
 -0.43333245D-03 -0.00000000D+00  0.00000000D+00 -0.13038665D-01  0.30018787D-03
  0.00000000D+00  0.00000000D+00  0.32991111D-01 -0.75955144D-03  0.00000000D+00
  0.00000000D+00  0.00000000D+00 -0.00000000D+00  0.00000000D+00  0.70274355D-03
 -0.16178832D-04 -0.00000000D+00 -0.00000000D+00 -0.00000000D+00 -0.00000000D+00
 -0.00000000D+00 -0.00000000D+00 -0.00000000D+00 -0.00000000D+00  0.00000000D+00
 -0.76670471D-02 -0.65244316D-02 -0.51352941D-02  0.17651638D-03  0.15021025D-03
  0.11822851D-03  0.00000000D+00  0.00000000D+00  0.00000000D+00  0.00000000D+00
 -0.18821783D-01  0.43333245D-03 -0.00000000D+00 -0.00000000D+00  0.13038665D-01
 -0.30018787D-03  0.00000000D+00 -0.00000000D+00 -0.32991111D-01  0.75955144D-03
  0.00000000D+00 -0.00000000D+00 -0.00000000D+00  0.00000000D+00 -0.00000000D+00
  0.70274355D-03 -0.16178832D-04
MO   13     MO 0.0        OCC NO =    0.0000000  ORB. ENERGY =    0.071286
  0.47948261D-02  0.88769368D-02  0.14376087D-01  0.18436010D-01  0.16724579D-01
  0.81258685D-03  0.10586602D-01  0.27985904D-01 -0.34436870D-04 -0.00000000D+00
 -0.00000000D+00 -0.00000000D+00  0.00000000D+00  0.00000000D+00  0.00000000D+00
  0.46944304D-01  0.39948222D-01  0.31442719D-01  0.12262402D-01 -0.00000000D+00
  0.00000000D+00  0.88111450D-02 -0.93910528D-01 -0.00000000D+00  0.00000000D+00
  0.93899180D-02  0.27627516D-01 -0.00000000D+00  0.00000000D+00  0.16641630D-01
  0.57404993D-02  0.57404993D-02  0.20820252D-02 -0.00000000D+00 -0.00000000D+00
  0.00000000D+00  0.47948261D-02  0.88769368D-02  0.14376087D-01  0.18436010D-01
  0.16724579D-01  0.81258685D-03  0.10586602D-01  0.27985904D-01 -0.34436870D-04
  0.00000000D+00  0.00000000D+00  0.00000000D+00  0.00000000D+00  0.00000000D+00
  0.00000000D+00 -0.46944304D-01 -0.39948222D-01 -0.31442719D-01  0.12262402D-01
  0.00000000D+00 -0.00000000D+00 -0.88111450D-02 -0.93910528D-01 -0.00000000D+00
  0.00000000D+00 -0.93899180D-02  0.27627516D-01  0.00000000D+00 -0.00000000D+00
 -0.16641630D-01  0.57404993D-02  0.57404993D-02  0.20820252D-02 -0.00000000D+00
 -0.00000000D+00  0.00000000D+00
MO   14     MO 0.0        OCC NO =    0.0000000  ORB. ENERGY =    0.071833
 -0.11888097D-02 -0.22009116D-02 -0.35643485D-02 -0.45709493D-02 -0.41466241D-02
 -0.20146948D-03 -0.11738731D-02 -0.31031582D-02  0.38184600D-05  0.00000000D+00
  0.00000000D+00  0.00000000D+00 -0.00000000D+00 -0.00000000D+00 -0.00000000D+00
  0.98794306D-01  0.84071049D-01  0.66171214D-01  0.94130272D-05  0.00000000D+00
 -0.00000000D+00  0.12381457D-01 -0.41914644D-01 -0.00000000D+00  0.00000000D+00
  0.27650244D-01  0.27284233D-01  0.00000000D+00 -0.00000000D+00 -0.20846413D-01
 -0.86808634D-03 -0.86808634D-03  0.36504210D-02 -0.00000000D+00 -0.00000000D+00
  0.00000000D+00 -0.11888097D-02 -0.22009116D-02 -0.35643485D-02 -0.45709493D-02
 -0.41466241D-02 -0.20146948D-03 -0.11738731D-02 -0.31031582D-02  0.38184600D-05
 -0.00000000D+00 -0.00000000D+00 -0.00000000D+00 -0.00000000D+00 -0.00000000D+00
 -0.00000000D+00 -0.98794306D-01 -0.84071049D-01 -0.66171214D-01  0.94130272D-05
 -0.00000000D+00  0.00000000D+00 -0.12381457D-01 -0.41914644D-01  0.00000000D+00
 -0.00000000D+00 -0.27650244D-01  0.27284233D-01 -0.00000000D+00  0.00000000D+00
  0.20846413D-01 -0.86808634D-03 -0.86808634D-03  0.36504210D-02 -0.00000000D+00
 -0.00000000D+00  0.00000000D+00
MO   15     MO 0.0        OCC NO =    0.0000000  ORB. ENERGY =    0.106990
 -0.64180863D-02 -0.11882172D-01 -0.19243026D-01 -0.24677412D-01 -0.22386587D-01
 -0.10876833D-02 -0.12012016D-01 -0.31754018D-01  0.39073563D-04 -0.00000000D+00
 -0.00000000D+00 -0.00000000D+00  0.00000000D+00  0.00000000D+00  0.00000000D+00
 -0.14898093D-01 -0.12677839D-01 -0.99785600D-02  0.13996282D+00  0.00000000D+00
  0.00000000D+00  0.96716153D-01  0.19040678D-01 -0.00000000D+00  0.00000000D+00
 -0.38681372D-01 -0.42313443D+01  0.00000000D+00 -0.00000000D+00 -0.22972078D+00
 -0.79996212D-02 -0.79996212D-02  0.17851847D-01 -0.00000000D+00 -0.00000000D+00
  0.00000000D+00  0.64180863D-02  0.11882172D-01  0.19243026D-01  0.24677412D-01
  0.22386587D-01  0.10876833D-02  0.12012016D-01  0.31754018D-01 -0.39073563D-04
 -0.00000000D+00 -0.00000000D+00 -0.00000000D+00  0.00000000D+00  0.00000000D+00
  0.00000000D+00 -0.14898093D-01 -0.12677839D-01 -0.99785600D-02 -0.13996282D+00
  0.00000000D+00 -0.00000000D+00  0.96716153D-01 -0.19040679D-01 -0.00000000D+00
 -0.00000000D+00 -0.38681372D-01  0.42313443D+01 -0.00000000D+00  0.00000000D+00
 -0.22972078D+00  0.79996212D-02  0.79996212D-02 -0.17851847D-01 -0.00000000D+00
 -0.00000000D+00  0.00000000D+00
MO   16     MO 0.0        OCC NO =    0.0000000  ORB. ENERGY =    0.163452
 -0.00000000D+00 -0.00000000D+00 -0.00000000D+00 -0.00000000D+00 -0.00000000D+00
 -0.00000000D+00 -0.00000000D+00 -0.00000000D+00  0.00000000D+00 -0.81972059D-01
 -0.69755812D-01 -0.54903879D-01  0.54805823D-02  0.46638144D-02  0.36708268D-02
 -0.00000000D+00 -0.00000000D+00 -0.00000000D+00 -0.00000000D+00 -0.43973932D-02
  0.29400549D-03 -0.00000000D+00  0.00000000D+00 -0.80001037D-01  0.53487998D-02
  0.00000000D+00 -0.00000000D+00  0.23085225D-01 -0.15434581D-02 -0.00000000D+00
  0.00000000D+00  0.00000000D+00 -0.00000000D+00 -0.00000000D+00  0.78289373D-02
 -0.52343556D-03  0.00000000D+00  0.00000000D+00  0.00000000D+00  0.00000000D+00
  0.00000000D+00  0.00000000D+00  0.00000000D+00  0.00000000D+00 -0.00000000D+00
  0.81972059D-01  0.69755812D-01  0.54903879D-01 -0.54805823D-02 -0.46638144D-02
 -0.36708268D-02 -0.00000000D+00 -0.00000000D+00 -0.00000000D+00  0.00000000D+00
  0.43973932D-02 -0.29400549D-03 -0.00000000D+00 -0.00000000D+00  0.80001037D-01
 -0.53487998D-02  0.00000000D+00  0.00000000D+00 -0.23085225D-01  0.15434581D-02
 -0.00000000D+00  0.00000000D+00  0.00000000D+00  0.00000000D+00 -0.00000000D+00
  0.78289373D-02 -0.52343556D-03
MO   17     MO 0.0        OCC NO =    0.0000000  ORB. ENERGY =    0.163452
  0.00000000D+00  0.00000000D+00  0.00000000D+00  0.00000000D+00  0.00000000D+00
  0.00000000D+00  0.00000000D+00  0.00000000D+00 -0.00000000D+00  0.54805823D-02
  0.46638144D-02  0.36708268D-02  0.81972059D-01  0.69755812D-01  0.54903879D-01
  0.00000000D+00  0.00000000D+00  0.00000000D+00 -0.00000000D+00  0.29400549D-03
  0.43973932D-02 -0.00000000D+00  0.00000000D+00  0.53487998D-02  0.80001037D-01
  0.00000000D+00  0.00000000D+00 -0.15434581D-02 -0.23085225D-01  0.00000000D+00
 -0.00000000D+00 -0.00000000D+00 -0.00000000D+00  0.00000000D+00 -0.52343556D-03
 -0.78289373D-02 -0.00000000D+00 -0.00000000D+00 -0.00000000D+00 -0.00000000D+00
 -0.00000000D+00 -0.00000000D+00 -0.00000000D+00 -0.00000000D+00  0.00000000D+00
 -0.54805823D-02 -0.46638144D-02 -0.36708268D-02 -0.81972059D-01 -0.69755812D-01
 -0.54903879D-01  0.00000000D+00  0.00000000D+00  0.00000000D+00  0.00000000D+00
 -0.29400549D-03 -0.43973932D-02 -0.00000000D+00 -0.00000000D+00 -0.53487998D-02
 -0.80001037D-01  0.00000000D+00 -0.00000000D+00  0.15434581D-02  0.23085225D-01
  0.00000000D+00 -0.00000000D+00  0.00000000D+00  0.00000000D+00 -0.00000000D+00
 -0.52343556D-03 -0.78289373D-02
MO   18     MO 0.0        OCC NO =    0.0000000  ORB. ENERGY =    0.230312
  0.12096152D-01  0.22394300D-01  0.36267286D-01  0.46509461D-01  0.42191947D-01
  0.20499542D-02  0.24914538D-01  0.65862106D-01 -0.81043828D-04 -0.00000000D+00
 -0.00000000D+00 -0.00000000D+00  0.00000000D+00  0.00000000D+00  0.00000000D+00
  0.37082036D-01  0.31555722D-01  0.24837093D-01  0.32802983D+00 -0.00000000D+00
 -0.00000000D+00  0.22111986D+00 -0.18752632D+01  0.00000000D+00  0.00000000D+00
 -0.33674940D+00  0.50512899D+00 -0.00000000D+00 -0.00000000D+00  0.34406480D-01
 -0.40162851D-02 -0.40162851D-02  0.53838632D-01 -0.00000000D+00 -0.00000000D+00
 -0.00000000D+00 -0.12096152D-01 -0.22394300D-01 -0.36267286D-01 -0.46509461D-01
 -0.42191947D-01 -0.20499542D-02 -0.24914538D-01 -0.65862106D-01  0.81043828D-04
 -0.00000000D+00 -0.00000000D+00 -0.00000000D+00 -0.00000000D+00 -0.00000000D+00
 -0.00000000D+00  0.37082036D-01  0.31555722D-01  0.24837093D-01 -0.32802983D+00
  0.00000000D+00  0.00000000D+00  0.22111986D+00  0.18752632D+01 -0.00000000D+00
 -0.00000000D+00 -0.33674940D+00 -0.50512899D+00  0.00000000D+00  0.00000000D+00
  0.34406480D-01  0.40162851D-02  0.40162851D-02 -0.53838632D-01  0.00000000D+00
  0.00000000D+00 -0.00000000D+00
MO   19     MO 0.0        OCC NO =    0.0000000  ORB. ENERGY =    0.259556
 -0.13908104D-01 -0.25748871D-01 -0.41699969D-01 -0.53476378D-01 -0.48512119D-01
 -0.23570285D-02 -0.16447060D-01 -0.43478148D-01  0.53500196D-04 -0.00000000D+00
 -0.00000000D+00 -0.00000000D+00 -0.00000000D+00 -0.00000000D+00 -0.00000000D+00
  0.83964438D-01  0.71451267D-01  0.56238350D-01  0.12791270D+00 -0.00000000D+00
 -0.00000000D+00  0.46049696D-01 -0.66792094D-01  0.00000000D+00  0.00000000D+00
 -0.69378443D-01  0.53878626D-02 -0.00000000D+00 -0.00000000D+00  0.16736472D-01
  0.12887945D-01  0.12887945D-01  0.10302699D-01 -0.00000000D+00 -0.00000000D+00
 -0.00000000D+00 -0.13908104D-01 -0.25748871D-01 -0.41699969D-01 -0.53476378D-01
 -0.48512119D-01 -0.23570285D-02 -0.16447060D-01 -0.43478148D-01  0.53500196D-04
 -0.00000000D+00 -0.00000000D+00 -0.00000000D+00 -0.00000000D+00 -0.00000000D+00
 -0.00000000D+00 -0.83964438D-01 -0.71451267D-01 -0.56238350D-01  0.12791270D+00
 -0.00000000D+00 -0.00000000D+00 -0.46049696D-01 -0.66792094D-01  0.00000000D+00
  0.00000000D+00  0.69378443D-01  0.53878626D-02  0.00000000D+00 -0.00000000D+00
 -0.16736472D-01  0.12887945D-01  0.12887945D-01  0.10302699D-01  0.00000000D+00
  0.00000000D+00 -0.00000000D+00
MO   20     MO 0.0        OCC NO =    0.0000000  ORB. ENERGY =    0.271238
 -0.00000000D+00 -0.00000000D+00 -0.00000000D+00 -0.00000000D+00 -0.00000000D+00
 -0.00000000D+00 -0.00000000D+00 -0.00000000D+00  0.00000000D+00 -0.81110819D-01
 -0.69022921D-01 -0.54327031D-01 -0.20185374D-01 -0.17177159D-01 -0.13519916D-01
 -0.00000000D+00 -0.00000000D+00 -0.00000000D+00 -0.00000000D+00 -0.10175489D+00
 -0.25322892D-01 -0.00000000D+00 -0.00000000D+00  0.41893568D-01  0.10425704D-01
 -0.00000000D+00 -0.00000000D+00 -0.51275399D-02 -0.12760483D-02 -0.00000000D+00
  0.00000000D+00  0.00000000D+00 -0.00000000D+00 -0.00000000D+00 -0.97785126D-02
 -0.24334977D-02  0.00000000D+00  0.00000000D+00  0.00000000D+00  0.00000000D+00
  0.00000000D+00  0.00000000D+00  0.00000000D+00  0.00000000D+00 -0.00000000D+00
 -0.81110819D-01 -0.69022921D-01 -0.54327031D-01 -0.20185374D-01 -0.17177159D-01
 -0.13519916D-01 -0.00000000D+00 -0.00000000D+00 -0.00000000D+00  0.00000000D+00
 -0.10175489D+00 -0.25322892D-01 -0.00000000D+00  0.00000000D+00  0.41893568D-01
  0.10425704D-01 -0.00000000D+00  0.00000000D+00 -0.51275399D-02 -0.12760483D-02
 -0.00000000D+00 -0.00000000D+00 -0.00000000D+00  0.00000000D+00 -0.00000000D+00
  0.97785126D-02  0.24334977D-02
MO   21     MO 0.0        OCC NO =    0.0000000  ORB. ENERGY =    0.271238
 -0.00000000D+00 -0.00000000D+00 -0.00000000D+00 -0.00000000D+00 -0.00000000D+00
 -0.00000000D+00 -0.00000000D+00 -0.00000000D+00  0.00000000D+00 -0.20185374D-01
 -0.17177159D-01 -0.13519916D-01  0.81110819D-01  0.69022921D-01  0.54327031D-01
 -0.00000000D+00 -0.00000000D+00 -0.00000000D+00 -0.00000000D+00 -0.25322892D-01
  0.10175489D+00 -0.00000000D+00  0.00000000D+00  0.10425704D-01 -0.41893568D-01
  0.00000000D+00 -0.00000000D+00 -0.12760483D-02  0.51275399D-02 -0.00000000D+00
  0.00000000D+00  0.00000000D+00 -0.00000000D+00  0.00000000D+00 -0.24334977D-02
  0.97785126D-02  0.00000000D+00  0.00000000D+00  0.00000000D+00  0.00000000D+00
  0.00000000D+00  0.00000000D+00  0.00000000D+00  0.00000000D+00 -0.00000000D+00
 -0.20185374D-01 -0.17177159D-01 -0.13519916D-01  0.81110819D-01  0.69022921D-01
  0.54327031D-01 -0.00000000D+00 -0.00000000D+00 -0.00000000D+00  0.00000000D+00
 -0.25322892D-01  0.10175489D+00 -0.00000000D+00 -0.00000000D+00  0.10425704D-01
 -0.41893568D-01  0.00000000D+00  0.00000000D+00 -0.12760483D-02  0.51275399D-02
 -0.00000000D+00 -0.00000000D+00 -0.00000000D+00  0.00000000D+00  0.00000000D+00
  0.24334977D-02 -0.97785126D-02
MO   22     MO 0.0        OCC NO =    0.0000000  ORB. ENERGY =    0.331253
 -0.22081112D-01 -0.40880031D-01 -0.66204692D-01 -0.84901433D-01 -0.77019959D-01
 -0.37421214D-02 -0.24027393D-01 -0.63516919D-01  0.78158058D-04  0.00000000D+00
  0.00000000D+00  0.00000000D+00  0.00000000D+00  0.00000000D+00  0.00000000D+00
 -0.72389433D-01 -0.61601278D-01 -0.48485554D-01  0.21403971D+00 -0.00000000D+00
 -0.00000000D+00 -0.91291981D-01 -0.16082293D+00  0.00000000D+00  0.00000000D+00
  0.29766084D-01  0.28284373D-01 -0.00000000D+00 -0.00000000D+00 -0.30701295D-03
  0.22425733D-01  0.22425733D-01  0.16538759D-01  0.00000000D+00 -0.00000000D+00
 -0.00000000D+00 -0.22081112D-01 -0.40880031D-01 -0.66204692D-01 -0.84901433D-01
 -0.77019959D-01 -0.37421214D-02 -0.24027393D-01 -0.63516919D-01  0.78158058D-04
 -0.00000000D+00 -0.00000000D+00 -0.00000000D+00 -0.00000000D+00 -0.00000000D+00
 -0.00000000D+00  0.72389433D-01  0.61601278D-01  0.48485554D-01  0.21403971D+00
 -0.00000000D+00  0.00000000D+00  0.91291981D-01 -0.16082293D+00  0.00000000D+00
 -0.00000000D+00 -0.29766084D-01  0.28284373D-01  0.00000000D+00  0.00000000D+00
  0.30701295D-03  0.22425733D-01  0.22425733D-01  0.16538759D-01 -0.00000000D+00
 -0.00000000D+00 -0.00000000D+00
MO   23     MO 0.0        OCC NO =    0.0000000  ORB. ENERGY =    0.374987
 -0.19261201D-01 -0.35659368D-01 -0.57749894D-01 -0.74058931D-01 -0.67183976D-01
 -0.32642266D-02 -0.21697064D-01 -0.57356645D-01  0.70577793D-04  0.00000000D+00
  0.00000000D+00  0.00000000D+00  0.00000000D+00  0.00000000D+00  0.00000000D+00
 -0.80090800D-01 -0.68154915D-01 -0.53643835D-01 -0.39745650D+00  0.00000000D+00
 -0.00000000D+00 -0.47142788D+00 -0.14696923D+01  0.00000000D+00 -0.00000000D+00
 -0.16349625D+00  0.21065770D+01 -0.00000000D+00  0.00000000D+00  0.11279613D+00