 Molden2AIM, Version 3.1.0 (02/25/2015)           Time: Mon Dec  2 17:24:14 2024
GAUSSIAN             46 MOL ORBITALS     72 PRIMITIVES        2 NUCLEI
  Be   1    (CENTRE  1)   0.00000000  0.00000000  0.00000000  CHARGE =  4.0
  Be   2    (CENTRE  2)   4.54000000  0.00000000  0.00000000  CHARGE =  4.0
CENTRE ASSIGNMENTS    1  1  1  1  1  1  1  1  1  1  1  1  1  1  1  1  1  1  1  1
CENTRE ASSIGNMENTS    1  1  1  1  1  1  1  1  1  1  1  1  1  1  1  1  2  2  2  2
CENTRE ASSIGNMENTS    2  2  2  2  2  2  2  2  2  2  2  2  2  2  2  2  2  2  2  2
CENTRE ASSIGNMENTS    2  2  2  2  2  2  2  2  2  2  2  2
TYPE ASSIGNMENTS      1  1  1  1  1  1  1  1  1  2  2  2  3  3  3  4  4  4  1  2
TYPE ASSIGNMENTS      3  4  1  2  3  4  1  2  3  4  5  6  7  8  9 10  1  1  1  1
TYPE ASSIGNMENTS      1  1  1  1  1  2  2  2  3  3  3  4  4  4  1  2  3  4  1  2
TYPE ASSIGNMENTS      3  4  1  2  3  4  5  6  7  8  9 10
EXPONENTS  0.1682800D+04 0.2517150D+03 0.5741160D+02 0.1651710D+02 0.4853640D+01
EXPONENTS  0.6268630D+00 0.8309380D+01 0.1740750D+01 0.4858160D+00 0.8309380D+01
EXPONENTS  0.1740750D+01 0.4858160D+00 0.8309380D+01 0.1740750D+01 0.4858160D+00
EXPONENTS  0.8309380D+01 0.1740750D+01 0.4858160D+00 0.1636130D+00 0.1636130D+00
EXPONENTS  0.1636130D+00 0.1636130D+00 0.5672850D-01 0.5672850D-01 0.5672850D-01
EXPONENTS  0.5672850D-01 0.2070000D-01 0.2070000D-01 0.2070000D-01 0.2070000D-01
EXPONENTS  0.2550000D+00 0.2550000D+00 0.2550000D+00 0.2550000D+00 0.2550000D+00
EXPONENTS  0.2550000D+00 0.1682800D+04 0.2517150D+03 0.5741160D+02 0.1651710D+02
EXPONENTS  0.4853640D+01 0.6268630D+00 0.8309380D+01 0.1740750D+01 0.4858160D+00
EXPONENTS  0.8309380D+01 0.1740750D+01 0.4858160D+00 0.8309380D+01 0.1740750D+01
EXPONENTS  0.4858160D+00 0.8309380D+01 0.1740750D+01 0.4858160D+00 0.1636130D+00
EXPONENTS  0.1636130D+00 0.1636130D+00 0.1636130D+00 0.5672850D-01 0.5672850D-01
EXPONENTS  0.5672850D-01 0.5672850D-01 0.2070000D-01 0.2070000D-01 0.2070000D-01
EXPONENTS  0.2070000D-01 0.2550000D+00 0.2550000D+00 0.2550000D+00 0.2550000D+00
EXPONENTS  0.2550000D+00 0.2550000D+00
MO    1     MO 0.0        OCC NO =    2.0000000  ORB. ENERGY =   -4.115270
  0.22253907D-03  0.41199936D-03  0.66722774D-03  0.85565825D-03  0.77622675D-03
  0.37714053D-04  0.15893593D-03  0.42015048D-03 -0.51699840D-06 -0.70172020D-04
 -0.59714326D-04 -0.47000358D-04  0.00000000D+00  0.00000000D+00  0.00000000D+00
 -0.00000000D+00 -0.00000000D+00 -0.00000000D+00  0.36970058D-04  0.19105358D-03
 -0.00000000D+00  0.00000000D+00 -0.22899159D-03 -0.57021090D-04  0.00000000D+00
 -0.00000000D+00  0.31986656D-03  0.29016850D-04 -0.00000000D+00  0.00000000D+00
  0.17717197D-03  0.56674669D-05  0.56674669D-05 -0.00000000D+00 -0.00000000D+00
 -0.00000000D+00  0.25517076D+00  0.47241228D+00  0.76506570D+00  0.98112644D+00
  0.89004762D+00  0.43244197D-01  0.16474009D+00  0.43549389D+00 -0.53587858D-03
  0.14552501D-03  0.12383751D-03  0.97470868D-04 -0.00000000D+00 -0.00000000D+00
 -0.00000000D+00  0.00000000D+00  0.00000000D+00  0.00000000D+00  0.62963654D-02
  0.13723855D-03  0.00000000D+00 -0.00000000D+00  0.44312925D-03 -0.56349033D-04
 -0.00000000D+00  0.00000000D+00 -0.36241672D-03  0.32661709D-04  0.00000000D+00
 -0.00000000D+00 -0.19881618D-02 -0.18969341D-02 -0.18969341D-02 -0.00000000D+00
  0.00000000D+00 -0.00000000D+00
MO    2     MO 0.0        OCC NO =    2.0000000  ORB. ENERGY =   -4.087440
 -0.25502775D+00 -0.47214750D+00 -0.76463690D+00 -0.98057654D+00 -0.88954877D+00
 -0.43219960D-01 -0.16474220D+00 -0.43549947D+00  0.53588545D-03 -0.12565856D-03
 -0.10693174D-03 -0.84164564D-04 -0.00000000D+00 -0.00000000D+00 -0.00000000D+00
 -0.00000000D+00 -0.00000000D+00 -0.00000000D+00 -0.65033310D-02  0.18621376D-03
  0.00000000D+00  0.00000000D+00 -0.44115922D-03 -0.64333611D-04 -0.00000000D+00
 -0.00000000D+00  0.35726865D-03  0.33013246D-04  0.00000000D+00  0.00000000D+00
  0.20451317D-02  0.19463404D-02  0.19463404D-02  0.00000000D+00  0.00000000D+00
 -0.00000000D+00  0.25153297D-03  0.46567743D-03  0.75415869D-03  0.96713920D-03
  0.87735883D-03  0.42627695D-04  0.14662994D-03  0.38761934D-03 -0.47696858D-06
 -0.74677214D-04 -0.63548113D-04 -0.50017881D-04  0.00000000D+00  0.00000000D+00
  0.00000000D+00 -0.00000000D+00 -0.00000000D+00 -0.00000000D+00 -0.26405613D-04
  0.20643778D-03 -0.00000000D+00 -0.00000000D+00  0.23429526D-03 -0.59042392D-04
  0.00000000D+00 -0.00000000D+00 -0.31621437D-03  0.28497547D-04 -0.00000000D+00
 -0.00000000D+00 -0.19161400D-03 -0.87459421D-05 -0.87459421D-05  0.00000000D+00
 -0.00000000D+00  0.00000000D+00
MO    3     MO 0.0        OCC NO =    2.0000000  ORB. ENERGY =   -0.313524
  0.35494625D-01  0.65713237D-01  0.10642175D+00  0.13647612D+00  0.12380692D+00
  0.60153308D-02  0.46580375D-01  0.12313620D+00 -0.15152004D-03 -0.45559132D-01
 -0.38769481D-01 -0.30514947D-01 -0.00000000D+00 -0.00000000D+00 -0.00000000D+00
 -0.00000000D+00 -0.00000000D+00 -0.00000000D+00 -0.74206637D-01 -0.13664779D-01
  0.00000000D+00 -0.00000000D+00 -0.13445712D-01 -0.40442662D-03 -0.00000000D+00
 -0.00000000D+00  0.34058428D-02  0.23910197D-03  0.00000000D+00  0.00000000D+00
 -0.22829048D-02  0.15576783D-02  0.15576783D-02 -0.00000000D+00 -0.00000000D+00
 -0.00000000D+00  0.37799644D-01  0.69980651D-01  0.11333278D+00  0.14533887D+00
  0.13184694D+00  0.64059661D-02  0.49743321D-01  0.13149752D+00 -0.16180870D-03
  0.45440020D-01  0.38668121D-01  0.30435168D-01 -0.00000000D+00 -0.00000000D+00
 -0.00000000D+00 -0.00000000D+00 -0.00000000D+00 -0.00000000D+00 -0.81134361D-01
  0.13362204D-01  0.00000000D+00 -0.00000000D+00 -0.13002345D-01  0.92539382D-03
  0.00000000D+00 -0.00000000D+00 -0.64636214D-02  0.40442225D-03 -0.00000000D+00
  0.00000000D+00 -0.19964876D-02  0.17924497D-02  0.17924497D-02  0.00000000D+00
  0.00000000D+00  0.00000000D+00
MO    4     MO 0.0        OCC NO =    2.0000000  ORB. ENERGY =   -0.202778
  0.34738721D-01  0.64313787D-01  0.10415536D+00  0.13356968D+00  0.12117029D+00
  0.58872265D-02  0.47217665D-01  0.12482089D+00 -0.15359306D-03  0.34707341D-01
  0.29534927D-01  0.23246551D-01 -0.00000000D+00 -0.00000000D+00 -0.00000000D+00
 -0.00000000D+00 -0.00000000D+00 -0.00000000D+00 -0.73435774D-01  0.11319848D-01
  0.00000000D+00 -0.00000000D+00 -0.45113641D-01 -0.22387676D-02 -0.00000000D+00
  0.00000000D+00  0.35256769D-01  0.35311601D-02  0.00000000D+00  0.00000000D+00
  0.16039293D-02  0.11045265D-02  0.11045265D-02  0.00000000D+00 -0.00000000D+00
 -0.00000000D+00 -0.32266398D-01 -0.59736635D-01 -0.96742722D-01 -0.12406365D+00
 -0.11254671D+00 -0.54682380D-02 -0.43073237D-01 -0.11386501D+00  0.14011177D-03
  0.52945825D-01  0.45055340D-01  0.35462464D-01  0.00000000D+00  0.00000000D+00
  0.00000000D+00  0.00000000D+00  0.00000000D+00  0.00000000D+00  0.74885312D-01
  0.19767976D-01  0.00000000D+00 -0.00000000D+00  0.27177561D-01 -0.48569718D-02
 -0.00000000D+00  0.00000000D+00 -0.23340038D-01  0.64085729D-02  0.00000000D+00
 -0.00000000D+00 -0.87648136D-03  0.33255063D-03  0.33255063D-03 -0.00000000D+00
 -0.00000000D+00 -0.00000000D+00
MO    5     MO 0.0        OCC NO =    0.0000000  ORB. ENERGY =   -0.154176
 -0.00000000D+00 -0.00000000D+00 -0.00000000D+00 -0.00000000D+00 -0.00000000D+00
 -0.00000000D+00 -0.00000000D+00 -0.00000000D+00  0.00000000D+00 -0.00000000D+00
 -0.00000000D+00 -0.00000000D+00  0.13211676D-01  0.11242748D-01  0.88490183D-02
 -0.15405582D-02 -0.13109697D-02 -0.10318469D-02  0.00000000D+00 -0.00000000D+00
  0.14890849D-01 -0.17363571D-02 -0.00000000D+00 -0.00000000D+00 -0.26589846D-02
  0.31005247D-03  0.00000000D+00  0.00000000D+00 -0.40673419D-02  0.47427491D-03
  0.00000000D+00  0.00000000D+00  0.00000000D+00  0.33258378D-02 -0.38781197D-03
  0.00000000D+00  0.00000000D+00  0.00000000D+00  0.00000000D+00  0.00000000D+00
  0.00000000D+00  0.00000000D+00  0.00000000D+00  0.00000000D+00 -0.00000000D+00
 -0.00000000D+00 -0.00000000D+00 -0.00000000D+00  0.12609535D-01  0.10730343D-01
  0.84457118D-02 -0.14703425D-02 -0.12512182D-02 -0.98481738D-03 -0.00000000D+00
  0.00000000D+00  0.36645931D-01 -0.42731211D-02 -0.00000000D+00 -0.00000000D+00
 -0.24727171D-01  0.28833271D-02 -0.00000000D+00  0.00000000D+00  0.18120430D-01
 -0.21129439D-02  0.00000000D+00  0.00000000D+00  0.00000000D+00 -0.77094142D-03
  0.89896602D-04 -0.00000000D+00
MO    6     MO 0.0        OCC NO =    0.0000000  ORB. ENERGY =   -0.154176
 -0.00000000D+00 -0.00000000D+00 -0.00000000D+00 -0.00000000D+00 -0.00000000D+00
 -0.00000000D+00 -0.00000000D+00 -0.00000000D+00  0.00000000D+00 -0.00000000D+00
 -0.00000000D+00 -0.00000000D+00 -0.15405582D-02 -0.13109697D-02 -0.10318469D-02
 -0.13211676D-01 -0.11242748D-01 -0.88490183D-02  0.00000000D+00 -0.00000000D+00
 -0.17363571D-02 -0.14890849D-01 -0.00000000D+00 -0.00000000D+00  0.31005247D-03
  0.26589846D-02  0.00000000D+00  0.00000000D+00  0.47427491D-03  0.40673419D-02
  0.00000000D+00  0.00000000D+00  0.00000000D+00 -0.38781197D-03 -0.33258378D-02
  0.00000000D+00  0.00000000D+00  0.00000000D+00  0.00000000D+00  0.00000000D+00
  0.00000000D+00  0.00000000D+00  0.00000000D+00  0.00000000D+00 -0.00000000D+00
 -0.00000000D+00 -0.00000000D+00 -0.00000000D+00 -0.14703425D-02 -0.12512182D-02
 -0.98481738D-03 -0.12609535D-01 -0.10730343D-01 -0.84457118D-02 -0.00000000D+00
  0.00000000D+00 -0.42731211D-02 -0.36645931D-01  0.00000000D+00 -0.00000000D+00
  0.28833271D-02  0.24727171D-01 -0.00000000D+00  0.00000000D+00 -0.21129439D-02
 -0.18120430D-01  0.00000000D+00  0.00000000D+00  0.00000000D+00  0.89896602D-04
  0.77094142D-03 -0.00000000D+00
MO    7     MO 0.0        OCC NO =    0.0000000  ORB. ENERGY =   -0.150856
 -0.12028187D-01 -0.22268473D-01 -0.36063510D-01 -0.46248137D-01 -0.41954882D-01
 -0.20384361D-02 -0.14185895D-01 -0.37500711D-01  0.46144914D-04 -0.38455626D-01
 -0.32724607D-01 -0.25757106D-01 -0.00000000D+00 -0.00000000D+00 -0.00000000D+00
  0.00000000D+00  0.00000000D+00  0.00000000D+00  0.41220953D-01 -0.11680899D-01
 -0.00000000D+00  0.00000000D+00 -0.76910281D-01 -0.17435413D-01  0.00000000D+00
 -0.00000000D+00  0.39187019D+00  0.35462690D-01  0.00000000D+00 -0.00000000D+00
  0.15312974D-02  0.38918448D-02  0.38918448D-02 -0.00000000D+00  0.00000000D+00
 -0.00000000D+00  0.13095243D-01  0.24243975D-01  0.39262810D-01  0.50350945D-01
  0.45676823D-01  0.22192718D-02  0.18156152D-01  0.47996170D-01 -0.59059657D-04
 -0.73043209D-02 -0.62157623D-02 -0.48923445D-02 -0.00000000D+00 -0.00000000D+00
 -0.00000000D+00  0.00000000D+00  0.00000000D+00  0.00000000D+00 -0.36582823D-01
  0.23943789D-01 -0.00000000D+00  0.00000000D+00  0.39389923D-01 -0.35507762D-01
  0.00000000D+00 -0.00000000D+00 -0.35473600D+00  0.50829000D-01 -0.00000000D+00
  0.00000000D+00  0.30093752D-02 -0.59482196D-03 -0.59482196D-03  0.00000000D+00
 -0.00000000D+00  0.00000000D+00
MO    8     MO 0.0        OCC NO =    0.0000000  ORB. ENERGY =   -0.122220
 -0.88502009D-03 -0.16384885D-02 -0.26535113D-02 -0.34028844D-02 -0.30869917D-02
 -0.14998577D-03  0.59503319D-03  0.15729827D-02 -0.19355674D-05 -0.59928206D-01
 -0.50997141D-01 -0.40139177D-01 -0.00000000D+00 -0.00000000D+00 -0.00000000D+00
  0.00000000D+00  0.00000000D+00  0.00000000D+00  0.63033033D-02 -0.12643273D-01
 -0.00000000D+00 -0.00000000D+00  0.37802790D-01  0.72859881D-02  0.00000000D+00
  0.00000000D+00 -0.46751863D+00 -0.44816189D-01 -0.00000000D+00 -0.00000000D+00
  0.23235741D-02  0.26911627D-02  0.26911627D-02 -0.00000000D+00  0.00000000D+00
  0.00000000D+00  0.46065498D-02  0.85283702D-02  0.13811587D-01  0.17712091D-01
  0.16067862D-01  0.78067936D-03  0.14022295D-01  0.37068232D-01 -0.45612744D-04
  0.52154393D-01  0.44381855D-01  0.34932373D-01 -0.00000000D+00 -0.00000000D+00
 -0.00000000D+00  0.00000000D+00  0.00000000D+00  0.00000000D+00  0.42742090D-01
  0.12387249D-01 -0.00000000D+00  0.00000000D+00 -0.18239620D+00  0.18058049D-01
 -0.00000000D+00 -0.00000000D+00  0.52841040D+00 -0.53843406D-01  0.00000000D+00
  0.00000000D+00  0.73988788D-02  0.14417628D-01  0.14417628D-01  0.00000000D+00
  0.00000000D+00 -0.00000000D+00
MO    9     MO 0.0        OCC NO =    0.0000000  ORB. ENERGY =   -0.097954
 -0.63870465D-02 -0.11824706D-01 -0.19149961D-01 -0.24558065D-01 -0.22278318D-01
 -0.10824230D-02 -0.13344746D-01 -0.35277116D-01  0.43408762D-04 -0.71847596D-01
 -0.61140191D-01 -0.48122638D-01 -0.00000000D+00 -0.00000000D+00 -0.00000000D+00
 -0.00000000D+00 -0.00000000D+00 -0.00000000D+00 -0.20067593D-01 -0.41991764D-01
 -0.00000000D+00 -0.00000000D+00  0.11873744D+00  0.18824425D-01  0.00000000D+00
  0.00000000D+00 -0.17037715D+00 -0.28288475D-01 -0.00000000D+00 -0.00000000D+00
 -0.55886254D-02 -0.83378574D-02 -0.83378574D-02 -0.00000000D+00 -0.00000000D+00
 -0.00000000D+00 -0.10506410D-01 -0.19451120D-01 -0.31500842D-01 -0.40396934D-01
 -0.36646852D-01 -0.17805381D-02 -0.17754529D-01 -0.46934471D-01  0.57753228D-04
  0.93758445D-01  0.79785679D-01  0.62798256D-01 -0.00000000D+00 -0.00000000D+00
 -0.00000000D+00 -0.00000000D+00 -0.00000000D+00 -0.00000000D+00  0.36188396D-02
  0.30275984D-01 -0.00000000D+00 -0.00000000D+00  0.35090457D-01  0.16009465D-01
 -0.00000000D+00 -0.00000000D+00  0.13900895D+00 -0.87610205D-02  0.00000000D+00
  0.00000000D+00 -0.56469884D-02 -0.53812937D-02 -0.53812937D-02  0.00000000D+00
  0.00000000D+00 -0.00000000D+00
MO   10     MO 0.0        OCC NO =    0.0000000  ORB. ENERGY =   -0.093325
 -0.00000000D+00 -0.00000000D+00 -0.00000000D+00 -0.00000000D+00 -0.00000000D+00
 -0.00000000D+00 -0.00000000D+00 -0.00000000D+00  0.00000000D+00 -0.00000000D+00
 -0.00000000D+00 -0.00000000D+00  0.10894943D+00  0.92712764D-01  0.72972994D-01
 -0.30584450D-04 -0.26026467D-04 -0.20485089D-04 -0.00000000D+00 -0.00000000D+00
  0.38868860D-01 -0.10912220D-04  0.00000000D+00 -0.00000000D+00  0.33172003D-02
 -0.93133026D-06 -0.00000000D+00 -0.00000000D+00  0.92398928D-02 -0.25939419D-05
 -0.00000000D+00 -0.00000000D+00 -0.00000000D+00  0.36611768D-02 -0.10278071D-05
  0.00000000D+00 -0.00000000D+00 -0.00000000D+00 -0.00000000D+00 -0.00000000D+00
 -0.00000000D+00 -0.00000000D+00 -0.00000000D+00 -0.00000000D+00  0.00000000D+00
  0.00000000D+00  0.00000000D+00  0.00000000D+00  0.12197232D+00  0.10379486D+00
  0.81695563D-01 -0.34239470D-04 -0.29136782D-04 -0.22933177D-04  0.00000000D+00
  0.00000000D+00  0.17735416D-01 -0.49792472D-05  0.00000000D+00  0.00000000D+00
  0.26878605D-01 -0.75457483D-05  0.00000000D+00 -0.00000000D+00 -0.12526202D-01
  0.35166004D-05 -0.00000000D+00 -0.00000000D+00 -0.00000000D+00 -0.66875183D-02
  0.18782262D-05  0.00000000D+00
MO   11     MO 0.0        OCC NO =    0.0000000  ORB. ENERGY =   -0.093325
  0.00000000D+00  0.00000000D+00  0.00000000D+00  0.00000000D+00  0.00000000D+00
  0.00000000D+00  0.00000000D+00  0.00000000D+00 -0.00000000D+00  0.00000000D+00
  0.00000000D+00  0.00000000D+00 -0.30584450D-04 -0.26026467D-04 -0.20485089D-04
 -0.10894943D+00 -0.92712764D-01 -0.72972994D-01 -0.00000000D+00  0.00000000D+00
 -0.10912220D-04 -0.38868860D-01 -0.00000000D+00 -0.00000000D+00 -0.93133026D-06
 -0.33172003D-02 -0.00000000D+00  0.00000000D+00 -0.25939419D-05 -0.92398928D-02
  0.00000000D+00  0.00000000D+00 -0.00000000D+00 -0.10278071D-05 -0.36611768D-02
 -0.00000000D+00  0.00000000D+00  0.00000000D+00  0.00000000D+00  0.00000000D+00
  0.00000000D+00  0.00000000D+00  0.00000000D+00  0.00000000D+00 -0.00000000D+00
 -0.00000000D+00 -0.00000000D+00 -0.00000000D+00 -0.34239470D-04 -0.29136782D-04
 -0.22933177D-04 -0.12197232D+00 -0.10379486D+00 -0.81695563D-01 -0.00000000D+00
 -0.00000000D+00 -0.49792472D-05 -0.17735416D-01 -0.00000000D+00 -0.00000000D+00
 -0.75457483D-05 -0.26878605D-01  0.00000000D+00 -0.00000000D+00  0.35166004D-05
  0.12526202D-01  0.00000000D+00  0.00000000D+00  0.00000000D+00  0.18782262D-05
  0.66875183D-02 -0.00000000D+00
MO   12     MO 0.0        OCC NO =    0.0000000  ORB. ENERGY =   -0.081664
 -0.51168792D-02 -0.94731723D-02 -0.15341682D-01 -0.19674298D-01 -0.17847915D-01
 -0.86716570D-03 -0.40680991D-02 -0.10754106D-01  0.13233010D-04 -0.10010632D+00
 -0.85187534D-01 -0.67049985D-01 -0.00000000D+00 -0.00000000D+00 -0.00000000D+00
 -0.00000000D+00 -0.00000000D+00 -0.00000000D+00  0.39129153D-01 -0.12413232D-01
 -0.00000000D+00  0.00000000D+00 -0.89331117D-01 -0.33712388D-01 -0.00000000D+00
 -0.00000000D+00  0.43920656D+00  0.56411429D-01  0.00000000D+00  0.00000000D+00
 -0.99498006D-03  0.73774710D-02  0.73774710D-02 -0.00000000D+00 -0.00000000D+00
 -0.00000000D+00 -0.66432277D-02 -0.12298989D-01 -0.19918056D-01 -0.25543077D-01
 -0.23171891D-01 -0.11258384D-02 -0.12364389D-01 -0.32685522D-01  0.40219786D-04
  0.11212884D+00  0.95418348D-01  0.75102523D-01 -0.00000000D+00 -0.00000000D+00
 -0.00000000D+00 -0.00000000D+00 -0.00000000D+00 -0.00000000D+00 -0.62353696D-02
  0.12222880D-01 -0.00000000D+00 -0.00000000D+00  0.12140016D+00  0.99471321D-02
 -0.00000000D+00 -0.00000000D+00 -0.46654255D+00  0.32249623D-01 -0.00000000D+00
 -0.00000000D+00 -0.60513726D-02 -0.48493771D-02 -0.48493771D-02  0.00000000D+00
  0.00000000D+00 -0.00000000D+00
MO   13     MO 0.0        OCC NO =    0.0000000  ORB. ENERGY =   -0.064246
  0.00000000D+00  0.00000000D+00  0.00000000D+00  0.00000000D+00  0.00000000D+00
  0.00000000D+00  0.00000000D+00  0.00000000D+00 -0.00000000D+00 -0.00000000D+00
 -0.00000000D+00 -0.00000000D+00  0.35638732D-01  0.30327513D-01  0.23870385D-01
  0.30747945D-03  0.26165597D-03  0.20594596D-03  0.00000000D+00 -0.00000000D+00
 -0.18520526D-01 -0.15978830D-03 -0.00000000D+00 -0.00000000D+00  0.26481819D-01
  0.22847583D-03  0.00000000D+00  0.00000000D+00 -0.20592669D-01 -0.17766616D-03
  0.00000000D+00  0.00000000D+00  0.00000000D+00  0.53164601D-02  0.45867849D-04
  0.00000000D+00 -0.00000000D+00 -0.00000000D+00 -0.00000000D+00 -0.00000000D+00
 -0.00000000D+00 -0.00000000D+00 -0.00000000D+00 -0.00000000D+00  0.00000000D+00
  0.00000000D+00  0.00000000D+00  0.00000000D+00  0.91179047D-01  0.77590687D-01
  0.61070607D-01  0.78665763D-03  0.66942251D-03  0.52689363D-03 -0.00000000D+00
 -0.00000000D+00  0.25918742D-01  0.22361819D-03  0.00000000D+00  0.00000000D+00
  0.70240301D-02  0.60600792D-04 -0.00000000D+00  0.00000000D+00  0.98122509D-02
  0.84656607D-04 -0.00000000D+00 -0.00000000D+00 -0.00000000D+00  0.82306742D-03
  0.71007385D-05  0.00000000D+00
MO   14     MO 0.0        OCC NO =    0.0000000  ORB. ENERGY =   -0.064246
 -0.00000000D+00 -0.00000000D+00 -0.00000000D+00 -0.00000000D+00 -0.00000000D+00
 -0.00000000D+00 -0.00000000D+00 -0.00000000D+00  0.00000000D+00 -0.00000000D+00
 -0.00000000D+00 -0.00000000D+00 -0.30747945D-03 -0.26165597D-03 -0.20594596D-03
  0.35638732D-01  0.30327513D-01  0.23870385D-01 -0.00000000D+00  0.00000000D+00
  0.15978830D-03 -0.18520526D-01  0.00000000D+00 -0.00000000D+00 -0.22847583D-03
  0.26481819D-01 -0.00000000D+00 -0.00000000D+00  0.17766616D-03 -0.20592669D-01
 -0.00000000D+00 -0.00000000D+00 -0.00000000D+00 -0.45867849D-04  0.53164601D-02
 -0.00000000D+00  0.00000000D+00  0.00000000D+00  0.00000000D+00  0.00000000D+00
  0.00000000D+00  0.00000000D+00  0.00000000D+00  0.00000000D+00 -0.00000000D+00
  0.00000000D+00  0.00000000D+00  0.00000000D+00 -0.78665763D-03 -0.66942251D-03
 -0.52689363D-03  0.91179047D-01  0.77590687D-01  0.61070607D-01  0.00000000D+00
  0.00000000D+00 -0.22361819D-03  0.25918742D-01 -0.00000000D+00 -0.00000000D+00
 -0.60600792D-04  0.70240301D-02  0.00000000D+00 -0.00000000D+00 -0.84656607D-04
  0.98122509D-02 -0.00000000D+00  0.00000000D+00  0.00000000D+00 -0.71007385D-05
  0.82306742D-03  0.00000000D+00
MO   15     MO 0.0        OCC NO =    0.0000000  ORB. ENERGY =   -0.027588
  0.14483025D-01  0.26813256D-01  0.43423728D-01  0.55686940D-01  0.50517473D-01
  0.24544614D-02  0.25008940D-01  0.66111658D-01 -0.81350904D-04  0.47021023D-01
  0.40013508D-01  0.31494104D-01  0.00000000D+00  0.00000000D+00  0.00000000D+00
 -0.00000000D+00 -0.00000000D+00 -0.00000000D+00 -0.15094634D-02 -0.13625328D-01
  0.00000000D+00 -0.00000000D+00 -0.15403132D+00  0.20099424D-01  0.00000000D+00
 -0.00000000D+00  0.57762593D+00  0.43426234D-01  0.00000000D+00  0.00000000D+00
  0.64167247D-02  0.86504973D-02  0.86504973D-02 -0.00000000D+00  0.00000000D+00
 -0.00000000D+00 -0.58832358D-02 -0.10891972D-01 -0.17639411D-01 -0.22620923D-01
 -0.20521003D-01 -0.99704137D-03 -0.10349382D-01 -0.27358808D-01  0.33665224D-04
 -0.27532545D-04 -0.23429386D-04 -0.18440961D-04 -0.00000000D+00 -0.00000000D+00
 -0.00000000D+00  0.00000000D+00  0.00000000D+00  0.00000000D+00 -0.71000737D-02
 -0.77047450D-02 -0.00000000D+00  0.00000000D+00  0.83476078D-01  0.20100704D-02
 -0.00000000D+00  0.00000000D+00 -0.53864304D+00  0.50125703D-01  0.00000000D+00
 -0.00000000D+00 -0.14766530D-02 -0.47115175D-02 -0.47115175D-02 -0.00000000D+00
  0.00000000D+00 -0.00000000D+00
MO   16     MO 0.0        OCC NO =    0.0000000  ORB. ENERGY =   -0.014042
 -0.00000000D+00 -0.00000000D+00 -0.00000000D+00 -0.00000000D+00 -0.00000000D+00
 -0.00000000D+00 -0.00000000D+00 -0.00000000D+00  0.00000000D+00 -0.00000000D+00
 -0.00000000D+00 -0.00000000D+00  0.16036396D+00  0.13646501D+00  0.10740981D+00
  0.19733474D-02  0.16792606D-02  0.13217239D-02  0.00000000D+00  0.00000000D+00
  0.33149446D-01  0.40791856D-03  0.00000000D+00 -0.00000000D+00  0.39301558D-01
  0.48362323D-03 -0.00000000D+00 -0.00000000D+00 -0.12131257D-01 -0.14928053D-03
 -0.00000000D+00 -0.00000000D+00 -0.00000000D+00 -0.25018469D-02 -0.30787258D-04
  0.00000000D+00  0.00000000D+00  0.00000000D+00  0.00000000D+00  0.00000000D+00
  0.00000000D+00  0.00000000D+00  0.00000000D+00  0.00000000D+00 -0.00000000D+00
  0.00000000D+00  0.00000000D+00  0.00000000D+00 -0.13252143D+00 -0.11277184D+00
 -0.88761225D-01 -0.16307347D-02 -0.13877073D-02 -0.10922461D-02  0.00000000D+00
  0.00000000D+00 -0.24871613D-01 -0.30605684D-03 -0.00000000D+00  0.00000000D+00
 -0.33431151D-01 -0.41138555D-03  0.00000000D+00 -0.00000000D+00  0.10055850D-01
  0.12374178D-03  0.00000000D+00  0.00000000D+00  0.00000000D+00 -0.52249201D-02
 -0.64295335D-04 -0.00000000D+00
MO   17     MO 0.0        OCC NO =    0.0000000  ORB. ENERGY =   -0.014042
 -0.00000000D+00 -0.00000000D+00 -0.00000000D+00 -0.00000000D+00 -0.00000000D+00
 -0.00000000D+00 -0.00000000D+00 -0.00000000D+00  0.00000000D+00 -0.00000000D+00
 -0.00000000D+00 -0.00000000D+00  0.19733474D-02  0.16792606D-02  0.13217239D-02
 -0.16036396D+00 -0.13646501D+00 -0.10740981D+00  0.00000000D+00  0.00000000D+00
  0.40791856D-03 -0.33149446D-01  0.00000000D+00 -0.00000000D+00  0.48362323D-03
 -0.39301558D-01 -0.00000000D+00 -0.00000000D+00 -0.14928053D-03  0.12131257D-01
 -0.00000000D+00 -0.00000000D+00 -0.00000000D+00 -0.30787258D-04  0.25018469D-02
 -0.00000000D+00  0.00000000D+00  0.00000000D+00  0.00000000D+00  0.00000000D+00
  0.00000000D+00  0.00000000D+00  0.00000000D+00  0.00000000D+00 -0.00000000D+00
 -0.00000000D+00 -0.00000000D+00 -0.00000000D+00 -0.16307347D-02 -0.13877073D-02
 -0.10922461D-02  0.13252143D+00  0.11277184D+00  0.88761225D-01  0.00000000D+00
  0.00000000D+00 -0.30605684D-03  0.24871613D-01 -0.00000000D+00 -0.00000000D+00
 -0.41138555D-03  0.33431151D-01  0.00000000D+00 -0.00000000D+00  0.12374178D-03
 -0.10055850D-01  0.00000000D+00  0.00000000D+00  0.00000000D+00 -0.64295335D-04
  0.52249201D-02  0.00000000D+00
MO   18     MO 0.0        OCC NO =    0.0000000  ORB. ENERGY =    0.076549
  0.18326039D-01  0.33928048D-01  0.54946043D-01  0.70463251D-01  0.63922086D-01
  0.31057431D-02  0.27923046D-01  0.73815158D-01 -0.90830120D-04 -0.10430821D+00
 -0.88763215D-01 -0.69864356D-01  0.00000000D+00  0.00000000D+00  0.00000000D+00
 -0.00000000D+00 -0.00000000D+00 -0.00000000D+00 -0.26442257D-01 -0.14552859D-01
  0.00000000D+00 -0.00000000D+00 -0.24888051D+00 -0.98188154D-01 -0.00000000D+00
  0.00000000D+00  0.58414484D-01  0.92294601D-02 -0.00000000D+00 -0.00000000D+00
  0.96552445D-02  0.10310045D-02  0.10310045D-02  0.00000000D+00 -0.00000000D+00
  0.00000000D+00 -0.21523864D-01 -0.39848365D-01 -0.64533921D-01 -0.82758823D-01
 -0.75076249D-01 -0.36476836D-02 -0.31651328D-01 -0.83670952D-01  0.10295775D-03
 -0.90129976D-01 -0.76697959D-01 -0.60367952D-01 -0.00000000D+00 -0.00000000D+00
 -0.00000000D+00  0.00000000D+00  0.00000000D+00  0.00000000D+00  0.39467175D-01
  0.49047929D-02 -0.00000000D+00  0.00000000D+00  0.24136949D+00 -0.10612415D+00
 -0.00000000D+00 -0.00000000D+00 -0.57169412D-01  0.10910773D-01  0.00000000D+00
  0.00000000D+00 -0.88825502D-02  0.12684553D-03  0.12684553D-03 -0.00000000D+00
  0.00000000D+00 -0.00000000D+00
MO   19     MO 0.0        OCC NO =    0.0000000  ORB. ENERGY =    0.158188
  0.86531417D-03  0.16020058D-02  0.25944281D-02  0.33271155D-02  0.30182565D-02
  0.14664618D-03 -0.24455159D-02 -0.64647727D-02  0.79549525D-05 -0.56073933D-01
 -0.47717268D-01 -0.37557632D-01 -0.00000000D+00 -0.00000000D+00 -0.00000000D+00
 -0.00000000D+00 -0.00000000D+00 -0.00000000D+00 -0.63789474D-01 -0.87647891D-01
 -0.00000000D+00 -0.00000000D+00  0.33003567D-01  0.53459854D-01  0.00000000D+00
  0.00000000D+00 -0.32386995D-01 -0.11502440D-01 -0.00000000D+00 -0.00000000D+00
 -0.15994165D-01 -0.25913201D-02 -0.25913201D-02 -0.00000000D+00  0.00000000D+00
  0.00000000D+00  0.44720582D-02  0.82793781D-02  0.13408348D-01  0.17194974D-01
  0.15598749D-01  0.75788686D-03  0.34893842D-02  0.92242606D-02 -0.11350524D-04
  0.10264846D+00  0.87350823D-01  0.68752681D-01 -0.00000000D+00 -0.00000000D+00
 -0.00000000D+00  0.00000000D+00  0.00000000D+00  0.00000000D+00 -0.69829427D-01
  0.11601542D+00 -0.00000000D+00  0.00000000D+00  0.13970904D-01 -0.56878805D-01
  0.00000000D+00 -0.00000000D+00  0.34083548D-01  0.58936509D-02 -0.00000000D+00
  0.00000000D+00 -0.12047513D-01 -0.28388828D-02 -0.28388828D-02  0.00000000D+00
  0.00000000D+00  0.00000000D+00
MO   20     MO 0.0        OCC NO =    0.0000000  ORB. ENERGY =    0.173886
 -0.00000000D+00 -0.00000000D+00 -0.00000000D+00 -0.00000000D+00 -0.00000000D+00
 -0.00000000D+00 -0.00000000D+00 -0.00000000D+00  0.00000000D+00  0.00000000D+00
  0.00000000D+00  0.00000000D+00  0.57863541D-01  0.49240172D-01  0.38756290D-01
  0.11528935D-02  0.98107848D-03  0.77219393D-03 -0.00000000D+00  0.00000000D+00
  0.67462827D-01  0.13441565D-02  0.00000000D+00  0.00000000D+00 -0.17425223D-01
 -0.34718729D-03 -0.00000000D+00 -0.00000000D+00  0.82219855D-03  0.16381778D-04
 -0.00000000D+00  0.00000000D+00  0.00000000D+00  0.12838433D-01  0.25579876D-03
  0.00000000D+00 -0.00000000D+00 -0.00000000D+00 -0.00000000D+00 -0.00000000D+00
 -0.00000000D+00 -0.00000000D+00 -0.00000000D+00 -0.00000000D+00  0.00000000D+00
  0.00000000D+00  0.00000000D+00  0.00000000D+00  0.15861642D+00  0.13497790D+00
  0.10623933D+00  0.31603350D-02  0.26893522D-02  0.21167536D-02  0.00000000D+00
  0.00000000D+00  0.16054094D+00  0.31986835D-02 -0.00000000D+00 -0.00000000D+00
 -0.66863945D-01 -0.13322245D-02  0.00000000D+00 -0.00000000D+00  0.78898220D-02
  0.15720002D-03  0.00000000D+00  0.00000000D+00  0.00000000D+00 -0.10808274D-01
 -0.21534907D-03  0.00000000D+00
MO   21     MO 0.0        OCC NO =    0.0000000  ORB. ENERGY =    0.173886
 -0.00000000D+00 -0.00000000D+00 -0.00000000D+00 -0.00000000D+00 -0.00000000D+00
 -0.00000000D+00 -0.00000000D+00 -0.00000000D+00  0.00000000D+00 -0.00000000D+00
 -0.00000000D+00 -0.00000000D+00 -0.11528935D-02 -0.98107848D-03 -0.77219393D-03
  0.57863541D-01  0.49240172D-01  0.38756290D-01  0.00000000D+00 -0.00000000D+00
 -0.13441565D-02  0.67462827D-01 -0.00000000D+00 -0.00000000D+00  0.34718729D-03
 -0.17425223D-01  0.00000000D+00  0.00000000D+00 -0.16381778D-04  0.82219855D-03
  0.00000000D+00  0.00000000D+00  0.00000000D+00 -0.25579876D-03  0.12838433D-01
 -0.00000000D+00 -0.00000000D+00 -0.00000000D+00 -0.00000000D+00 -0.00000000D+00
 -0.00000000D+00 -0.00000000D+00 -0.00000000D+00 -0.00000000D+00  0.00000000D+00
 -0.00000000D+00 -0.00000000D+00 -0.00000000D+00 -0.31603350D-02 -0.26893522D-02
 -0.21167536D-02  0.15861642D+00  0.13497790D+00  0.10623933D+00 -0.00000000D+00
 -0.00000000D+00 -0.31986835D-02  0.16054094D+00  0.00000000D+00  0.00000000D+00
  0.13322245D-02 -0.66863945D-01 -0.00000000D+00 -0.00000000D+00 -0.15720002D-03
  0.78898220D-02  0.00000000D+00 -0.00000000D+00 -0.00000000D+00  0.21534907D-03
 -0.10808274D-01 -0.00000000D+00
MO   22     MO 0.0        OCC NO =    0.0000000  ORB. ENERGY =    0.179803
  0.28622493D-01  0.52990465D-01  0.85817386D-01  0.11005291D+00  0.99836603D-01
  0.48506997D-02  0.30813392D-01  0.81455849D-01 -0.10023205D-03  0.19374366D-02
  0.16487016D-02  0.12976713D-02  0.00000000D+00  0.00000000D+00  0.00000000D+00
 -0.00000000D+00 -0.00000000D+00 -0.00000000D+00 -0.19746365D+00 -0.36091785D-02
  0.00000000D+00 -0.00000000D+00  0.11440437D+00 -0.81970647D-02 -0.00000000D+00
  0.00000000D+00  0.20665616D-01  0.30583031D-02  0.00000000D+00 -0.00000000D+00
 -0.22201521D-01 -0.15880974D-01 -0.15880974D-01  0.00000000D+00 -0.00000000D+00
  0.00000000D+00  0.34361008D-01  0.63614507D-01  0.10302289D+00  0.13211738D+00
  0.11985281D+00  0.58232150D-02  0.34864093D-01  0.92163963D-01 -0.11340846D-03
 -0.81864472D-01 -0.69664258D-01 -0.54831819D-01  0.00000000D+00  0.00000000D+00
  0.00000000D+00  0.00000000D+00  0.00000000D+00  0.00000000D+00 -0.26632138D+00
 -0.58440977D-01  0.00000000D+00  0.00000000D+00  0.21847814D+00  0.10926196D-01
  0.00000000D+00 -0.00000000D+00 -0.73730783D-01  0.40817173D-02  0.00000000D+00
  0.00000000D+00 -0.32837021D-01 -0.21019496D-01 -0.21019496D-01 -0.00000000D+00
  0.00000000D+00  0.00000000D+00
MO   23     MO 0.0        OCC NO =    0.0000000  ORB. ENERGY =    0.203845
  0.00000000D+00  0.00000000D+00  0.00000000D+00  0.00000000D+00  0.00000000D+00
  0.00000000D+00  0.00000000D+00  0.00000000D+00 -0.00000000D+00  0.00000000D+00
  0.00000000D+00  0.00000000D+00  0.16670322D+00  0.14185953D+00  0.11165577D+00
  0.33060272D-02  0.28133319D-02  0.22143364D-02 -0.00000000D+00  0.00000000D+00
  0.16132863D+00  0.31994385D-02  0.00000000D+00 -0.00000000D+00 -0.81462452D-01
 -0.16155478D-02 -0.00000000D+00 -0.00000000D+00  0.12253458D-01  0.24300827D-03