[Molden Format]
[Title]
 Molden2AIM, Version 3.1.0 (02/25/2015)           Time: Mon Dec  2 17:18:45 2024

[Atoms] AU
E+       1       4     0.00000000     0.00000000     0.00000000
E+       2       4     4.54000000     0.00000000     0.00000000
[GTO]
    1 0
 S   1 1.0
    0.1000000000D-03      0.1000000000D+01
 S   1 1.0
    0.3000000000D-03      0.1000000000D+01
 S   1 1.0
    0.9000000000D-03      0.1000000000D+01
 S   1 1.0
    0.2700000000D-02      0.1000000000D+01
 S   1 1.0
    0.8100000000D-02      0.1000000000D+01
 S   1 1.0
    0.2430000000D-01      0.1000000000D+01
 S   1 1.0
    0.7290000000D-01      0.1000000000D+01
 S   1 1.0
    0.2187000000D+00      0.1000000000D+01
 S   1 1.0
    0.6561000000D+00      0.1000000000D+01
 S   1 1.0
    0.1968300000D+01      0.1000000000D+01
 P   1 1.0
    0.1000000000D-03      0.1000000000D+01
 P   1 1.0
    0.3000000000D-03      0.1000000000D+01
 P   1 1.0
    0.9000000000D-03      0.1000000000D+01
 P   1 1.0
    0.2700000000D-02      0.1000000000D+01
 D   1 1.0
    0.1000000000D-03      0.1000000000D+01
 D   1 1.0
    0.3000000000D-03      0.1000000000D+01

    2 0
 S   1 1.0
    0.1000000000D-03      0.1000000000D+01
 S   1 1.0
    0.3000000000D-03      0.1000000000D+01
 S   1 1.0
    0.9000000000D-03      0.1000000000D+01
 S   1 1.0
    0.2700000000D-02      0.1000000000D+01
 S   1 1.0
    0.8100000000D-02      0.1000000000D+01
 S   1 1.0
    0.2430000000D-01      0.1000000000D+01
 S   1 1.0
    0.7290000000D-01      0.1000000000D+01
 S   1 1.0
    0.2187000000D+00      0.1000000000D+01
 S   1 1.0
    0.6561000000D+00      0.1000000000D+01
 S   1 1.0
    0.1968300000D+01      0.1000000000D+01
 P   1 1.0
    0.1000000000D-03      0.1000000000D+01
 P   1 1.0
    0.3000000000D-03      0.1000000000D+01
 P   1 1.0
    0.9000000000D-03      0.1000000000D+01
 P   1 1.0
    0.2700000000D-02      0.1000000000D+01
 D   1 1.0
    0.1000000000D-03      0.1000000000D+01
 D   1 1.0
    0.3000000000D-03      0.1000000000D+01


[MO]
 Ene=         -0.08254560
 Spin= Alpha
 Occup=        1.00000000
    1       -0.0120044700
    2       -0.0029975900
    3        0.0096711300
    4       -0.0343671200
    5        0.1007814800
    6        0.2280566900
    7        0.4070833000
    8       -0.1775932900
    9       -0.0436096600
   10        0.0029167700
   11       -0.0005725600
   12        0.0000000000
   13       -0.0000000000
   14       -0.0007070200
   15        0.0000000000
   16       -0.0000000000
   17        0.0908922800
   18        0.0000000000
   19        0.0000000000
   20       -0.0732534900
   21        0.0000000000
   22       -0.0000000000
   23        0.0005028600
   24        0.0024200500
   25        0.0024200500
   26       -0.0000000000
   27        0.0000000000
   28        0.0000000000
   29        0.0081443300
   30        0.0027981900
   31        0.0027981900
   32        0.0000000000
   33        0.0000000000
   34       -0.0000000000
   35       -0.0120044600
   36       -0.0029975800
   37        0.0096143900
   38       -0.0350844100
   39        0.1008222900
   40        0.2283378300
   41        0.4070850400
   42       -0.1776041900
   43       -0.0436137400
   44        0.0029169600
   45        0.0005729100
   46       -0.0000000000
   47        0.0000000000
   48        0.0007071200
   49       -0.0000000000
   50       -0.0000000000
   51       -0.0908892400
   52       -0.0000000000
   53       -0.0000000000
   54        0.0733386000
   55       -0.0000000000
   56        0.0000000000
   57        0.0005009700
   58        0.0024165400
   59        0.0024165400
   60        0.0000000000
   61       -0.0000000000
   62       -0.0000000000
   63        0.0081387200
   64        0.0027947800
   65        0.0027947800
   66       -0.0000000000
   67       -0.0000000000
   68        0.0000000000
 Ene=         -0.04856470
 Spin= Alpha
 Occup=        0.00000000
    1       -0.0000743300
    2       -0.0001105600
    3       -0.4550354700
    4       -5.7738536400
    5        0.5055943500
    6        1.2133395100
    7        0.1310617700
    8       -0.0810143000
    9       -0.0222819100
   10        0.0013379600
   11        0.0025779800
   12       -0.0000000000
   13        0.0000000000
   14        0.0013657800
   15       -0.0000000000
   16        0.0000000000
   17       -0.0341785700
   18        0.0000000000
   19       -0.0000000000
   20       -0.6752797200
   21       -0.0000000000
   22        0.0000000000
   23        0.0290409700
   24        0.0154140200
   25        0.0154140200
   26       -0.0000000000
   27        0.0000000000
   28        0.0000000000
   29        0.0312378600
   30        0.0494455300
   31        0.0494455300
   32       -0.0000000000
   33        0.0000000000
   34       -0.0000000000
   35        0.0000596700
   36        0.0000853700
   37        0.4550705500
   38        5.7738581000
   39       -0.5056736100
   40       -1.2132871500
   41       -0.1309062300
   42        0.0809574100
   43        0.0222708200
   44       -0.0013373100
   45        0.0025787800
   46        0.0000000000
   47       -0.0000000000
   48        0.0013681100
   49        0.0000000000
   50       -0.0000000000
   51       -0.0340337700
   52       -0.0000000000
   53        0.0000000000
   54       -0.6754067100
   55        0.0000000000
   56       -0.0000000000
   57       -0.0290370200
   58       -0.0154129400
   59       -0.0154129400
   60       -0.0000000000
   61        0.0000000000
   62       -0.0000000000
   63       -0.0312348800
   64       -0.0494340700
   65       -0.0494340700
   66       -0.0000000000
   67        0.0000000000
   68        0.0000000000
 Ene=         -0.00263691
 Spin= Alpha
 Occup=        0.00000000
    1       -0.3004684700
    2       -0.2899972700
    3        0.3172860800
    4       -0.4292845500
    5       -0.3408089100
    6        0.2630650000
    7        0.1960655000
    8       -0.0706353300
    9       -0.0163482400
   10        0.0009182700
   11       -0.0158177200
   12       -0.0000000000
   13       -0.0000000000
   14       -0.0305643700
   15        0.0000000000
   16       -0.0000000000
   17       -0.8387140800
   18       -0.0000000000
   19        0.0000000000
   20        0.8910229000
   21        0.0000000000
   22        0.0000000000
   23        0.0590970300
   24        0.0371539600
   25        0.0371539600
   26        0.0000000000
   27        0.0000000000
   28        0.0000000000
   29        0.0996652400
   30        0.1601237500
   31        0.1601237500
   32        0.0000000000
   33       -0.0000000000
   34       -0.0000000000
   35       -0.3004677800
   36       -0.2899967600
   37        0.3175301600
   38       -0.4260896900
   39       -0.3416103400
   40        0.2635043000
   41        0.1961623200
   42       -0.0706761300
   43       -0.0163520500
   44        0.0009180400
   45        0.0158447500
   46        0.0000000000
   47        0.0000000000
   48        0.0305693600
   49       -0.0000000000
   50        0.0000000000
   51        0.8386516900
   52        0.0000000000
   53       -0.0000000000
   54       -0.8914062300
   55        0.0000000000
   56       -0.0000000000
   57        0.0588549900
   58        0.0369284900
   59        0.0369284900
   60       -0.0000000000
   61       -0.0000000000
   62       -0.0000000000
   63        0.0993250800
   64        0.1597632600
   65        0.1597632600
   66       -0.0000000000
   67        0.0000000000
   68        0.0000000000
 Ene=          0.00008834
 Spin= Alpha
 Occup=        0.00000000
    1        1.2055180800
    2       -0.3499225300
    3       -0.1309475900
    4        0.0492610500
    5        0.0112255600
    6       -0.0106645300
    7       -0.0099086500
    8        0.0034876900
    9        0.0007136700
   10       -0.0000341800
   11        0.0724094100
   12       -0.0000000000
   13        0.0000000000
   14       -0.0120704800
   15       -0.0000000000
   16        0.0000000000
   17        0.0939323200
   18        0.0000000000
   19       -0.0000000000
   20       -0.0621123800
   21       -0.0000000000
   22        0.0000000000
   23       -0.4541095700
   24       -0.4479472900
   25       -0.4479472900
   26        0.0000000000
   27        0.0000000000
   28        0.0000000000
   29       -0.2189347100
   30       -0.2276690000
   31       -0.2276690000
   32       -0.0000000000
   33        0.0000000000
   34        0.0000000000
   35        1.2055172500
   36       -0.3499201500
   37       -0.1309450700
   38        0.0490806300
   39        0.0112774200
   40       -0.0106950500
   41       -0.0099146400
   42        0.0034902700
   43        0.0007139600
   44       -0.0000341700
   45       -0.0724156200
   46       -0.0000000000
   47       -0.0000000000
   48        0.0121429800
   49        0.0000000000
   50       -0.0000000000
   51       -0.0939157800
   52       -0.0000000000
   53        0.0000000000
   54        0.0621338200
   55        0.0000000000
   56       -0.0000000000
   57       -0.4517983300
   58       -0.4456479400
   59       -0.4456479400
   60       -0.0000000000
   61       -0.0000000000
   62       -0.0000000000
   63       -0.2184135400
   64       -0.2271491100
   65       -0.2271491100
   66        0.0000000000
   67       -0.0000000000
   68       -0.0000000000
 Ene=          0.00013732
 Spin= Alpha
 Occup=        0.00000000
    1        0.0072971800
    2       -0.0113559300
    3       -0.1735300500
    4       -1.0947563600
    5       -0.0201465700
    6        0.0112146900
    7        0.0008899500
    8       -0.0005087500
    9       -0.0001357500
   10        0.0000075000
   11       -0.1685640300
   12       -0.0000000000
   13        0.0000000000
   14        0.3523914300
   15       -0.0000000000
   16        0.0000000000
   17        0.0489060700
   18        0.0000000000
   19        0.0000000000
   20       -0.1415628200
   21       -0.0000000000
   22       -0.0000000000
   23      -12.2793297100
   24      -12.2465203100
   25      -12.2465203100
   26        0.0000000000
   27        0.0000000000
   28        0.0000000000
   29       -2.7372421200
   30       -2.7313075100
   31       -2.7313075100
   32       -0.0000000000
   33        0.0000000000
   34       -0.0000000000
   35       -0.0076649500
   36        0.0114607300
   37        0.1735633200
   38        1.0947448500
   39        0.0201451000
   40       -0.0112128800
   41       -0.0008870800
   42        0.0005077800
   43        0.0001355700
   44       -0.0000074900
   45       -0.1685433000
   46        0.0000000000
   47       -0.0000000000
   48        0.3523875400
   49        0.0000000000
   50       -0.0000000000
   51        0.0489114600
   52        0.0000000000
   53       -0.0000000000
   54       -0.1415761500
   55       -0.0000000000
   56        0.0000000000
   57       12.2794332400
   58       12.2466567000
   59       12.2466567100
   60       -0.0000000000
   61        0.0000000000
   62       -0.0000000000
   63        2.7373040400
   64        2.7313696500
   65        2.7313696500
   66       -0.0000000000
   67        0.0000000000
   68        0.0000000000
 Ene=          0.00020923
 Spin= Alpha
 Occup=        0.00000000
    1        0.0000000000
    2        0.0000000000
    3       -0.0000000000
    4        0.0000000000
    5       -0.0000000000
    6        0.0000000000
    7        0.0000000000
    8       -0.0000000000
    9        0.0000000000
   10       -0.0000000000
   11       -0.0000000000
   12        0.6459387600
   13       -0.0001040900
   14       -0.0000000000
   15       -0.1288329200
   16        0.0000207600
   17       -0.0000000000
   18        0.0124100600
   19       -0.0000020000
   20        0.0000000000
   21        0.0076249900
   22       -0.0000012300
   23        0.0000000000
   24       -0.0000000000
   25       -0.0000000000
   26       -4.1300565100
   27        0.0006655100
   28        0.0000000000
   29        0.0000000000
   30        0.0000000000
   31        0.0000000000
   32        0.7004098500
   33       -0.0001128600
   34       -0.0000000000
   35       -0.0000000000
   36       -0.0000000000
   37        0.0000000000
   38       -0.0000000000
   39        0.0000000000
   40       -0.0000000000
   41       -0.0000000000
   42        0.0000000000
   43       -0.0000000000
   44        0.0000000000
   45        0.0000000000
   46        0.6459377100
   47       -0.0001040900
   48        0.0000000000
   49       -0.1288327400
   50        0.0000207600
   51       -0.0000000000
   52        0.0123590000
   53       -0.0000019900
   54        0.0000000000
   55        0.0076423700
   56       -0.0000012300
   57       -0.0000000000
   58        0.0000000000
   59        0.0000000000
   60        4.1300099200
   61       -0.0006655100
   62       -0.0000000000
   63       -0.0000000000
   64       -0.0000000000
   65       -0.0000000000
   66       -0.7004046900
   67        0.0001128600
   68        0.0000000000
 Ene=          0.00020923
 Spin= Alpha
 Occup=        0.00000000
    1       -0.0000000000
    2        0.0000000000
    3        0.0000000000
    4        0.0000000000
    5       -0.0000000000
    6        0.0000000000
    7       -0.0000000000
    8        0.0000000000
    9       -0.0000000000
   10        0.0000000000
   11        0.0000000000
   12        0.0001040900
   13        0.6459387600
   14       -0.0000000000
   15       -0.0000207600
   16       -0.1288329200
   17        0.0000000000
   18        0.0000020000
   19        0.0124100600
   20        0.0000000000
   21        0.0000012300
   22        0.0076249900
   23        0.0000000000
   24        0.0000000000
   25       -0.0000000000
   26       -0.0006655100
   27       -4.1300565100
   28       -0.0000000000
   29        0.0000000000
   30       -0.0000000000
   31        0.0000000000
   32        0.0001128600
   33        0.7004098500
   34        0.0000000000
   35        0.0000000000
   36       -0.0000000000
   37       -0.0000000000
   38       -0.0000000000
   39        0.0000000000
   40       -0.0000000000
   41        0.0000000000
   42        0.0000000000
   43        0.0000000000
   44       -0.0000000000
   45       -0.0000000000
   46        0.0001040900
   47        0.6459377100
   48        0.0000000000
   49       -0.0000207600
   50       -0.1288327400
   51       -0.0000000000
   52        0.0000019900
   53        0.0123590000
   54        0.0000000000
   55        0.0000012300
   56        0.0076423700
   57       -0.0000000000
   58       -0.0000000000
   59        0.0000000000
   60        0.0006655100
   61        4.1300099100
   62        0.0000000000
   63       -0.0000000000
   64        0.0000000000
   65       -0.0000000000
   66       -0.0001128600
   67       -0.7004046900
   68       -0.0000000000
 Ene=          0.00032605
 Spin= Alpha
 Occup=        0.00000000
    1        0.0471708800
    2        0.0565761400
    3       -0.0711577500
    4       -0.0013318100
    5        0.0044853000
    6       -0.0012401500
    7        0.0003549800
    8       -0.0000951000
    9        0.0000268200
   10       -0.0000045100
   11        0.0243717900
   12       -0.0000000000
   13       -0.0000000000
   14       -0.0015453800
   15        0.0000000000
   16        0.0000000000
   17        0.3212149400
   18       -0.0000000000
   19       -0.0000000000
   20       -0.0331366400
   21        0.0000000000
   22        0.0000000000
   23       -0.5636141400
   24        0.2768328000
   25        0.2768328000
   26        0.0000000000
   27        0.0000000000
   28       -0.0000000000
   29        0.0913063400
   30       -0.0831020400
   31       -0.0831020400
   32       -0.0000000000
   33       -0.0000000000
   34       -0.0000000000
   35        0.0471744600
   36        0.0565740600
   37       -0.0712079500
   38       -0.0017874900
   39        0.0044866700
   40       -0.0012420200
   41        0.0003545700
   42       -0.0000949300
   43        0.0000268400
   44       -0.0000045100
   45       -0.0242298700
   46        0.0000000000
   47        0.0000000000
   48        0.0014804300
   49       -0.0000000000
   50       -0.0000000000
   51       -0.3212220700
   52        0.0000000000
   53        0.0000000000
   54        0.0331934800
   55       -0.0000000000
   56       -0.0000000000
   57       -0.5648019600
   58        0.2737895200
   59        0.2737895200
   60        0.0000000000
   61        0.0000000000
   62        0.0000000000
   63        0.0907828300
   64       -0.0835752400
   65       -0.0835752400
   66       -0.0000000000
   67       -0.0000000000
   68       -0.0000000000
 Ene=          0.00032624
 Spin= Alpha
 Occup=        0.00000000
    1       -0.0000000000
    2       -0.0000000000
    3        0.0000000000
    4       -0.0000000000
    5       -0.0000000000
    6        0.0000000000
    7       -0.0000000000
    8        0.0000000000
    9        0.0000000000
   10        0.0000000000
   11       -0.0000000000
   12       -0.0126381700
   13       -0.0010402200
   14        0.0000000000
   15        0.0044409700
   16        0.0003655300
   17       -0.0000000000
   18       -0.3881090700
   19       -0.0319443900
   20        0.0000000000
   21        0.0444835000
   22        0.0036613400
   23        0.0000000000
   24       -0.0000000000
   25       -0.0000000000
   26        0.5586979500
   27        0.0459851800
   28        0.0000000000
   29       -0.0000000000
   30        0.0000000000
   31        0.0000000000
   32       -0.1170396100
   33       -0.0096332700
   34       -0.0000000000
   35       -0.0000000000
   36       -0.0000000000
   37        0.0000000000
   38        0.0000000000
   39       -0.0000000000
   40        0.0000000000
   41       -0.0000000000
   42        0.0000000000
   43       -0.0000000000
   44        0.0000000000
   45        0.0000000000
   46        0.0126948700
   47        0.0010448900
   48        0.0000000000
   49       -0.0044659600
   50       -0.0003675800
   51        0.0000000000
   52        0.3881118500
   53        0.0319446200
   54       -0.0000000000
   55       -0.0444839500
   56       -0.0036613700
   57        0.0000000000
   58       -0.0000000000
   59        0.0000000000
   60        0.5585445700
   61        0.0459725600
   62       -0.0000000000
   63       -0.0000000000
   64        0.0000000000
   65        0.0000000000
   66       -0.1171467400
   67       -0.0096420900
   68        0.0000000000
 Ene=          0.00032624
 Spin= Alpha
 Occup=        0.00000000
    1        0.0000000000
    2        0.0000000000
    3       -0.0000000000
    4       -0.0000000000
    5        0.0000000000
    6       -0.0000000000
    7        0.0000000000
    8       -0.0000000000
    9        0.0000000000
   10       -0.0000000000
   11        0.0000000000
   12       -0.0010402200
   13        0.0126381700
   14       -0.0000000000
   15        0.0003655300
   16       -0.0044409700
   17        0.0000000000
   18       -0.0319443900
   19        0.3881090700
   20       -0.0000000000
   21        0.0036613400
   22       -0.0444835000
   23       -0.0000000000
   24        0.0000000000
   25        0.0000000000
   26        0.0459851800
   27       -0.5586979500
   28        0.0000000000
   29        0.0000000000
   30       -0.0000000000
   31       -0.0000000000
   32       -0.0096332700
   33        0.1170396100
   34       -0.0000000000
   35        0.0000000000
   36        0.0000000000
   37       -0.0000000000
   38        0.0000000000
   39        0.0000000000
   40       -0.0000000000
   41        0.0000000000
   42       -0.0000000000
   43        0.0000000000
   44       -0.0000000000
   45       -0.0000000000
   46        0.0010448900
   47       -0.0126948700
   48        0.0000000000
   49       -0.0003675800
   50        0.0044659600
   51       -0.0000000000
   52        0.0319446200
   53       -0.3881118500
   54        0.0000000000
   55       -0.0036613700
   56        0.0444839500
   57       -0.0000000000
   58        0.0000000000
   59       -0.0000000000
   60        0.0459725600
   61       -0.5585445700
   62       -0.0000000000
   63        0.0000000000
   64       -0.0000000000
   65       -0.0000000000
   66       -0.0096420900
   67        0.1171467400
   68        0.0000000000
 Ene=          0.00033110
 Spin= Alpha
 Occup=        0.00000000
    1        0.0000000000
    2       -0.0000000000
    3       -0.0000000000
    4       -0.0000000000
    5        0.0000000000
    6        0.0000000000
    7        0.0000000000
    8       -0.0000000000
    9       -0.0000000000
   10        0.0000000000
   11        0.0000000000
   12       -0.0000000000
   13       -0.0000000000
   14       -0.0000000000
   15       -0.0000000000
   16       -0.0000000000
   17        0.0000000000
   18       -0.0000000000
   19       -0.0000000000
   20       -0.0000000000
   21        0.0000000000
   22        0.0000000000
   23        0.0000000000
   24        0.4759053900
   25       -0.4759053900
   26        0.0000000000
   27        0.0000000000
   28       -0.0000037300
   29        0.0000000000
   30       -0.0771136700
   31        0.0771136700
   32        0.0000000000
   33        0.0000000000
   34        0.0000006000
   35        0.0000000000
   36       -0.0000000000
   37       -0.0000000000
   38        0.0000000000
   39       -0.0000000000
   40        0.0000000000
   41        0.0000000000
   42       -0.0000000000
   43       -0.0000000000
   44        0.0000000000
   45        0.0000000000
   46        0.0000000000
   47        0.0000000000
   48       -0.0000000000
   49       -0.0000000000
   50       -0.0000000000
   51       -0.0000000000
   52        0.0000000000
   53        0.0000000000
   54       -0.0000000000
   55       -0.0000000000
   56       -0.0000000000
   57       -0.0000000000
   58        0.4747786100
   59       -0.4747786100
   60       -0.0000000000
   61       -0.0000000000
   62       -0.0000037200
   63       -0.0000000000
   64       -0.0770797100
   65        0.0770797100
   66       -0.0000000000
   67       -0.0000000000
   68        0.0000006000
 Ene=          0.00033110
 Spin= Alpha
 Occup=        0.00000000
    1       -0.0000000000
    2        0.0000000000
    3        0.0000000000
    4        0.0000000000
    5        0.0000000000
    6        0.0000000000
    7        0.0000000000
    8       -0.0000000000
    9       -0.0000000000
   10        0.0000000000
   11        0.0000000000
   12        0.0000000000
   13       -0.0000000000
   14       -0.0000000000
   15        0.0000000000
   16       -0.0000000000
   17        0.0000000000
   18        0.0000000000
   19       -0.0000000000
   20        0.0000000000
   21       -0.0000000000
   22        0.0000000000
   23        0.0000000000
   24       -0.0000032300
   25        0.0000032300
   26       -0.0000000000
   27        0.0000000000
   28       -0.5495281900
   29        0.0000000000
   30        0.0000005200
   31       -0.0000005200
   32       -0.0000000000
   33        0.0000000000
   34        0.0890431500
   35       -0.0000000000
   36        0.0000000000
   37       -0.0000000000
   38       -0.0000000000
   39        0.0000000000
   40       -0.0000000000
   41       -0.0000000000
   42        0.0000000000
   43        0.0000000000
   44       -0.0000000000
   45        0.0000000000
   46       -0.0000000000
   47        0.0000000000
   48       -0.0000000000
   49        0.0000000000
   50       -0.0000000000
   51       -0.0000000000
   52       -0.0000000000
   53        0.0000000000
   54        0.0000000000
   55        0.0000000000
   56       -0.0000000000
   57       -0.0000000000
   58       -0.0000032300
   59        0.0000032300
   60        0.0000000000
   61       -0.0000000000
   62       -0.5482271000
   63       -0.0000000000
   64        0.0000005200
   65       -0.0000005200
   66        0.0000000000
   67       -0.0000000000
   68        0.0890039500
 Ene=          0.00038530
 Spin= Alpha
 Occup=        0.00000000
    1        3.7662563900
    2       -1.0961097600
    3       -0.3036846400
    4       -0.0030434700
    5       -0.0474210200
    6        0.0311468000
    7        0.0190236500
    8       -0.0068906000
    9       -0.0017428600
   10        0.0001065600
   11        0.2020658200
   12       -0.0000000000
   13        0.0000000000
   14       -0.0505405800
   15       -0.0000000000
   16        0.0000000000
   17       -0.0008661800
   18       -0.0000000000
   19       -0.0000000000
   20        0.0831346200
   21        0.0000000000
   22        0.0000000000
   23       -0.8145759800
   24       -0.8192768000
   25       -0.8192768000
   26        0.0000000000
   27        0.0000000000
   28       -0.0000000000
   29       -0.5047396000
   30       -0.5049450300
   31       -0.5049450300
   32        0.0000000000
   33        0.0000000000
   34       -0.0000000000
   35        3.7662355400
   36       -1.0960980100
   37       -0.3033800900
   38       -0.0003195100
   39       -0.0475361200
   40        0.0312244100
   41        0.0190393500
   42       -0.0068973100
   43       -0.0017436100
   44        0.0001065300
   45       -0.2028321600
   46        0.0000000000
   47       -0.0000000000
   48        0.0509095200
   49        0.0000000000
   50       -0.0000000000
   51        0.0008978500
   52        0.0000000000
   53        0.0000000000
   54       -0.0834794500
   55       -0.0000000000
   56       -0.0000000000
   57       -0.8029736500
   58       -0.8075371800
   59       -0.8075371800
   60       -0.0000000000
   61       -0.0000000000
   62        0.0000000000
   63       -0.5016545000
   64       -0.5018478700
   65       -0.5018478700
   66       -0.0000000000
   67       -0.0000000000
   68        0.0000000000
 Ene=          0.00042869
 Spin= Alpha
 Occup=        0.00000000
    1       -0.0371239500
    2        0.0223317300
    3        0.4389557100
    4        3.5880640800
    5       -0.0179450600
    6        0.0269644000
    7        0.0050343400
    8       -0.0022146500
    9       -0.0003062300
   10        0.0000003700
   11        1.4502234000
   12        0.0000000000
   13       -0.0000000000
   14       -0.7064759200
   15        0.0000000000
   16       -0.0000000000
   17       -0.0881115200
   18       -0.0000000000
   19       -0.0000000000
   20        0.4556097200
   21       -0.0000000000
   22        0.0000000000
   23       18.1784873000
   24       21.8735505500
   25       21.8735511700
   26       -0.0000000000
   27       -0.0000000000
   28       -0.0000000000
   29        5.6885274100
   30        5.4364784800
   31        5.4364784300
   32        0.0000000000
   33       -0.0000000000
   34        0.0000000000
   35        0.0395528100
   36       -0.0230653500
   37       -0.4391483200
   38       -3.5880627400
   39        0.0179151300
   40       -0.0269450800
   41       -0.0050198800
   42        0.0022095500
   43        0.0003050100
   44       -0.0000003000
   45        1.4500955700
   46       -0.0000000000
   47        0.0000000000
   48       -0.7064431500
   49       -0.0000000000
   50        0.0000000000
   51       -0.0880926000
   52       -0.0000000000
   53        0.0000000000
   54        0.4555503500
   55        0.0000000000
   56       -0.0000000000
   57      -18.1789393400
   58      -21.8740865600
   59      -21.8740871800
   60        0.0000000000
   61        0.0000000000
   62        0.0000000000
   63       -5.6888820800
   64       -5.4367940400
   65       -5.4367939900
   66       -0.0000000000
   67       -0.0000000000
   68       -0.0000000000
 Ene=          0.00043197
 Spin= Alpha
 Occup=        0.00000000
    1        0.0042492300
    2        0.0009340900
    3       -0.0113490500
    4       -0.6199255600
    5        0.0012195800
    6        0.0032138100
    7        0.0008124900
    8       -0.0003371600
    9       -0.0000356300
   10       -0.0000011900
   11       -0.3529857500
   12       -0.0000000000
   13        0.0000000000
   14       -0.0230816300
   15       -0.0000000000
   16        0.0000000000
   17       -0.0146995900
   18       -0.0000000000
   19        0.0000000000
   20       -0.0712770000
   21        0.0000000000
   22       -0.0000000000
   23       13.2053807600
   24      -12.8760089100
   25      -12.8760115900
   26       -0.0000000000
   27       -0.0000000000
   28       -0.0000000000
   29       -0.0661851700
   30        2.0245977700
   31        2.0245979800
   32        0.0000000000
   33        0.0000000000
   34        0.0000000000
   35       -0.0039193600
   36       -0.0010276600
   37        0.0113169300
   38        0.6199256700
   39       -0.0012231800
   40       -0.0032113600
   41       -0.0008105100
   42        0.0003364700
   43        0.0000354700
   44        0.0000012000
   45       -0.3530047200
   46        0.0000000000
   47       -0.0000000000
   48       -0.0230771600
   49        0.0000000000
   50       -0.0000000000
   51       -0.0147254100
   52       -0.0000000000
   53       -0.0000000000
   54       -0.0712820200
   55       -0.0000000000
   56        0.0000000000
   57      -13.2054830900
   58       12.8759574700
   59       12.8759601400
   60        0.0000000000
   61        0.0000000000
   62        0.0000000000
   63        0.0661446500
   64       -2.0246471100
   65       -2.0246473200
   66       -0.0000000000
   67       -0.0000000000
   68       -0.0000000000
 Ene=          0.00043234
 Spin= Alpha
 Occup=        0.00000000
    1        0.0000000000
    2        0.0000000000
    3       -0.0000000000
    4       -0.0000000000
    5        0.0000000000
    6       -0.0000000000
    7       -0.0000000000
    8        0.0000000000
    9        0.0000000000
   10        0.0000000000
   11        0.0000000000
   12        0.0000000000
   13       -0.0000000000
   14        0.0000000000
   15       -0.0000000000
   16        0.0000000000