[Molden Format]
[Title]
 Molden2AIM, Version 3.1.0 (02/25/2015)           Time: Mon Dec  2 17:31:01 2024

[Atoms] AU
BE       1       4     0.00000000     0.00000000     0.00000000
BE       2       4     4.54000000     0.00000000     0.00000000
[GTO]
    1 0
 S   6 1.0
    0.1682800000D+04      0.2285740532D-02
    0.2517150000D+03      0.1759380410D-01
    0.5741160000D+02      0.8633152009D-01
    0.1651710000D+02      0.2818350656D+00
    0.4853640000D+01      0.6405941491D+00
    0.6268630000D+00      0.1444670336D+00
 S   3 1.0
    0.8309380000D+01      0.1086210323D+00
    0.1740750000D+01      0.9273012759D+00
    0.4858160000D+00     -0.2971690884D-02
 P   3 1.0
    0.8309380000D+01      0.3613440323D-01
    0.1740750000D+01      0.2169580194D+00
    0.4858160000D+00      0.8418390753D+00
 S   1 1.0
    0.1636130000D+00      0.1000000000D+01
 P   1 1.0
    0.1636130000D+00      0.1000000000D+01
 S   1 1.0
    0.5672850000D-01      0.1000000000D+01
 P   1 1.0
    0.5672850000D-01      0.1000000000D+01
 S   1 1.0
    0.2070000000D-01      0.1000000000D+01
 P   1 1.0
    0.2070000000D-01      0.1000000000D+01
 D   1 1.0
    0.2550000000D+00      0.1000000000D+01

    2 0
 S   6 1.0
    0.1682800000D+04      0.2285740532D-02
    0.2517150000D+03      0.1759380410D-01
    0.5741160000D+02      0.8633152009D-01
    0.1651710000D+02      0.2818350656D+00
    0.4853640000D+01      0.6405941491D+00
    0.6268630000D+00      0.1444670336D+00
 S   3 1.0
    0.8309380000D+01      0.1086210323D+00
    0.1740750000D+01      0.9273012759D+00
    0.4858160000D+00     -0.2971690884D-02
 P   3 1.0
    0.8309380000D+01      0.3613440323D-01
    0.1740750000D+01      0.2169580194D+00
    0.4858160000D+00      0.8418390753D+00
 S   1 1.0
    0.1636130000D+00      0.1000000000D+01
 P   1 1.0
    0.1636130000D+00      0.1000000000D+01
 S   1 1.0
    0.5672850000D-01      0.1000000000D+01
 P   1 1.0
    0.5672850000D-01      0.1000000000D+01
 S   1 1.0
    0.2070000000D-01      0.1000000000D+01
 P   1 1.0
    0.2070000000D-01      0.1000000000D+01
 D   1 1.0
    0.2550000000D+00      0.1000000000D+01


[MO]
 Ene=         -4.07605000
 Spin= Alpha
 Occup=        2.00000000
    1        0.4213700500
    2        0.3074608200
    3        0.0001885400
    4        0.0000000000
    5       -0.0000000000
    6        0.0250036100
    7        0.0000155100
    8       -0.0000000000
    9        0.0000000000
   10        0.0017269700
   11        0.0001377500
   12        0.0000000000
   13       -0.0000000000
   14       -0.0007248400
   15       -0.0002931500
   16       -0.0000000000
   17        0.0000000000
   18       -0.0086471800
   19       -0.0090298000
   20       -0.0090298000
   21       -0.0000000000
   22       -0.0000000000
   23        0.0000000000
   24        0.4213700500
   25        0.3074608200
   26       -0.0001885400
   27       -0.0000000000
   28        0.0000000000
   29        0.0250036100
   30       -0.0000155100
   31        0.0000000000
   32       -0.0000000000
   33        0.0017269700
   34       -0.0001377500
   35       -0.0000000000
   36        0.0000000000
   37       -0.0007248400
   38        0.0002931500
   39        0.0000000000
   40       -0.0000000000
   41       -0.0086471800
   42       -0.0090298000
   43       -0.0090298000
   44       -0.0000000000
   45        0.0000000000
   46       -0.0000000000
 Ene=         -4.07600000
 Spin= Alpha
 Occup=        2.00000000
    1        0.4214183700
    2        0.3074353400
    3        0.0003392000
    4        0.0000000000
    5        0.0000000000
    6        0.0247492000
    7       -0.0020132400
    8        0.0000000000
    9       -0.0000000000
   10        0.0056831100
   11        0.0022434700
   12       -0.0000000000
   13        0.0000000000
   14       -0.0118201100
   15       -0.0037629800
   16       -0.0000000000
   17       -0.0000000000
   18       -0.0104694200
   19       -0.0090949000
   20       -0.0090949000
   21       -0.0000000000
   22        0.0000000000
   23        0.0000000000
   24       -0.4214183700
   25       -0.3074353400
   26        0.0003392000
   27        0.0000000000
   28        0.0000000000
   29       -0.0247492000
   30       -0.0020132400
   31       -0.0000000000
   32        0.0000000000
   33       -0.0056831100
   34        0.0022434700
   35        0.0000000000
   36       -0.0000000000
   37        0.0118201100
   38       -0.0037629800
   39       -0.0000000000
   40        0.0000000000
   41        0.0104694200
   42        0.0090949000
   43        0.0090949000
   44        0.0000000000
   45        0.0000000000
   46       -0.0000000000
 Ene=         -0.29588400
 Spin= Alpha
 Occup=        2.00000000
    1        0.0857110200
    2        0.1274133900
    3       -0.0621135700
    4        0.0000000000
    5        0.0000000000
    6       -0.4112279700
    7       -0.0897226200
    8        0.0000000000
    9        0.0000000000
   10       -0.2083671300
   11       -0.0168399200
   12       -0.0000000000
   13       -0.0000000000
   14       -0.0003325200
   15        0.0018766700
   16        0.0000000000
   17       -0.0000000000
   18       -0.0131378200
   19        0.0116946300
   20        0.0116946300
   21        0.0000000000
   22        0.0000000000
   23       -0.0000000000
   24        0.0857110200
   25        0.1274133900
   26        0.0621135700
   27        0.0000000000
   28        0.0000000000
   29       -0.4112279700
   30        0.0897226200
   31       -0.0000000000
   32        0.0000000000
   33       -0.2083671300
   34        0.0168399200
   35        0.0000000000
   36       -0.0000000000
   37       -0.0003325200
   38       -0.0018766700
   39       -0.0000000000
   40        0.0000000000
   41       -0.0131378200
   42        0.0116946300
   43        0.0116946300
   44        0.0000000000
   45       -0.0000000000
   46        0.0000000000
 Ene=         -0.18215800
 Spin= Alpha
 Occup=        2.00000000
    1        0.0834907100
    2        0.1271778800
    3        0.0648178200
    4       -0.0000000000
    5        0.0000000000
    6       -0.4222181400
    7        0.0916728200
    8       -0.0000000000
    9        0.0000000000
   10       -0.4368914000
   11        0.0427984400
   12       -0.0000000000
   13       -0.0000000000
   14       -0.0350161400
   15        0.0102515100
   16       -0.0000000000
   17        0.0000000000
   18        0.0108501600
   19        0.0016097000
   20        0.0016097000
   21        0.0000000000
   22        0.0000000000
   23       -0.0000000000
   24       -0.0834907100
   25       -0.1271778800
   26        0.0648178200
   27        0.0000000000
   28        0.0000000000
   29        0.4222181400
   30        0.0916728200
   31       -0.0000000000
   32        0.0000000000
   33        0.4368914000
   34        0.0427984400
   35        0.0000000000
   36        0.0000000000
   37        0.0350161400
   38        0.0102515100
   39       -0.0000000000
   40       -0.0000000000
   41       -0.0108501600
   42       -0.0016097000
   43       -0.0016097000
   44       -0.0000000000
   45       -0.0000000000
   46       -0.0000000000
 Ene=         -0.08310570
 Spin= Alpha
 Occup=        0.00000000
    1       -0.0158579400
    2       -0.0244561600
    3       -0.1862102600
    4        0.0000000000
    5       -0.0000000000
    6        0.0699847300
    7       -0.2812096400
    8        0.0000000000
    9       -0.0000000000
   10        0.2022715400
   11       -0.2377478500
   12        0.0000000000
   13       -0.0000000000
   14        0.1130878700
   15       -0.0617233700
   16       -0.0000000000
   17       -0.0000000000
   18       -0.0159233700
   19        0.0056601500
   20        0.0056601500
   21        0.0000000000
   22       -0.0000000000
   23       -0.0000000000
   24       -0.0158579400
   25       -0.0244561600
   26        0.1862102600
   27        0.0000000000
   28       -0.0000000000
   29        0.0699847300
   30        0.2812096400
   31        0.0000000000
   32       -0.0000000000
   33        0.2022715400
   34        0.2377478500
   35        0.0000000000
   36       -0.0000000000
   37        0.1130878700
   38        0.0617233700
   39        0.0000000000
   40       -0.0000000000
   41       -0.0159233700
   42        0.0056601500
   43        0.0056601500
   44       -0.0000000000
   45        0.0000000000
   46       -0.0000000000
 Ene=         -0.08114910
 Spin= Alpha
 Occup=        0.00000000
    1       -0.0000000000
    2       -0.0000000000
    3       -0.0000000000
    4       -0.0059801700
    5        0.1595126900
    6        0.0000000000
    7       -0.0000000000
    8       -0.0095575000
    9        0.2549327200
   10        0.0000000000
   11       -0.0000000000
   12       -0.0096691500
   13        0.2579109600
   14       -0.0000000000
   15       -0.0000000000
   16       -0.0023512400
   17        0.0627160500
   18       -0.0000000000
   19       -0.0000000000
   20       -0.0000000000
   21       -0.0008283600
   22        0.0220952200
   23        0.0000000000
   24       -0.0000000000
   25       -0.0000000000
   26        0.0000000000
   27       -0.0059801700
   28        0.1595126900
   29        0.0000000000
   30        0.0000000000
   31       -0.0095575000
   32        0.2549327200
   33       -0.0000000000
   34        0.0000000000
   35       -0.0096691500
   36        0.2579109600
   37        0.0000000000
   38       -0.0000000000
   39       -0.0023512400
   40        0.0627160500
   41        0.0000000000
   42        0.0000000000
   43        0.0000000000
   44        0.0008283600
   45       -0.0220952200
   46        0.0000000000
 Ene=         -0.08114910
 Spin= Alpha
 Occup=        0.00000000
    1       -0.0000000000
    2        0.0000000000
    3       -0.0000000000
    4       -0.1595126900
    5       -0.0059801700
    6        0.0000000000
    7       -0.0000000000
    8       -0.2549327200
    9       -0.0095575000
   10       -0.0000000000
   11       -0.0000000000
   12       -0.2579109600
   13       -0.0096691500
   14        0.0000000000
   15        0.0000000000
   16       -0.0627160500
   17       -0.0023512400
   18        0.0000000000
   19        0.0000000000
   20        0.0000000000
   21       -0.0220952200
   22       -0.0008283600
   23        0.0000000000
   24       -0.0000000000
   25       -0.0000000000
   26        0.0000000000
   27       -0.1595126900
   28       -0.0059801700
   29       -0.0000000000
   30        0.0000000000
   31       -0.2549327200
   32       -0.0095575000
   33        0.0000000000
   34       -0.0000000000
   35       -0.2579109600
   36       -0.0096691500
   37       -0.0000000000
   38        0.0000000000
   39       -0.0627160500
   40       -0.0023512400
   41       -0.0000000000
   42       -0.0000000000
   43       -0.0000000000
   44        0.0220952200
   45        0.0008283600
   46        0.0000000000
 Ene=         -0.01028850
 Spin= Alpha
 Occup=        0.00000000
    1       -0.0000000000
    2        0.0000000000
    3       -0.0000000000
    4        0.0583126300
    5       -0.1538491900
    6       -0.0000000000
    7       -0.0000000000
    8        0.0925395300
    9       -0.2441517800
   10       -0.0000000000
   11       -0.0000000000
   12        0.1487761100
   13       -0.3925236400
   14        0.0000000000
   15        0.0000000000
   16        0.1812752300
   17       -0.4782677200
   18        0.0000000000
   19        0.0000000000
   20        0.0000000000
   21       -0.0073058400
   22        0.0192753600
   23       -0.0000000000
   24       -0.0000000000
   25       -0.0000000000
   26        0.0000000000
   27       -0.0583126300
   28        0.1538491900
   29        0.0000000000
   30        0.0000000000
   31       -0.0925395300
   32        0.2441517800
   33        0.0000000000
   34       -0.0000000000
   35       -0.1487761100
   36        0.3925236400
   37       -0.0000000000
   38        0.0000000000
   39       -0.1812752300
   40        0.4782677200
   41        0.0000000000
   42       -0.0000000000
   43        0.0000000000
   44       -0.0073058400
   45        0.0192753600
   46        0.0000000000
 Ene=         -0.01028850
 Spin= Alpha
 Occup=        0.00000000
    1       -0.0000000000
    2        0.0000000000
    3       -0.0000000000
    4       -0.1538491900
    5       -0.0583126300
    6        0.0000000000
    7        0.0000000000
    8       -0.2441517800
    9       -0.0925395300
   10       -0.0000000000
   11       -0.0000000000
   12       -0.3925236400
   13       -0.1487761100
   14        0.0000000000
   15        0.0000000000
   16       -0.4782677200
   17       -0.1812752300
   18        0.0000000000
   19        0.0000000000
   20        0.0000000000
   21        0.0192753600
   22        0.0073058400
   23       -0.0000000000
   24       -0.0000000000
   25       -0.0000000000
   26       -0.0000000000
   27        0.1538491900
   28        0.0583126300
   29        0.0000000000
   30       -0.0000000000
   31        0.2441517800
   32        0.0925395300
   33        0.0000000000
   34        0.0000000000
   35        0.3925236400
   36        0.1487761100
   37       -0.0000000000
   38        0.0000000000
   39        0.4782677200
   40        0.1812752300
   41       -0.0000000000
   42       -0.0000000000
   43       -0.0000000000
   44        0.0192753600
   45        0.0073058400
   46       -0.0000000000
 Ene=          0.01839060
 Spin= Alpha
 Occup=        0.00000000
    1        0.0301943200
    2        0.0518960800
    3        0.0630438900
    4        0.0000000000
    5        0.0000000000
    6       -0.1374421600
    7        0.0606913700
    8       -0.0000000000
    9       -0.0000000000
   10       -0.8399886300
   11        0.2475862900
   12       -0.0000000000
   13        0.0000000000
   14        1.0308351400
   15       -0.2337433500
   16       -0.0000000000
   17        0.0000000000
   18        0.0105436600
   19        0.0223755200
   20        0.0223755200
   21       -0.0000000000
   22       -0.0000000000
   23       -0.0000000000
   24        0.0301943200
   25        0.0518960800
   26       -0.0630438900
   27       -0.0000000000
   28        0.0000000000
   29       -0.1374421600
   30       -0.0606913700
   31       -0.0000000000
   32        0.0000000000
   33       -0.8399886300
   34       -0.2475862900
   35       -0.0000000000
   36        0.0000000000
   37        1.0308351400
   38        0.2337433500
   39        0.0000000000
   40       -0.0000000000
   41        0.0105436600
   42        0.0223755200
   43        0.0223755200
   44        0.0000000000
   45       -0.0000000000
   46       -0.0000000000
 Ene=          0.01945100
 Spin= Alpha
 Occup=        0.00000000
    1       -0.0299789100
    2       -0.0470414200
    3       -0.0070563400
    4       -0.0000000000
    5       -0.0000000000
    6        0.1914740500
    7        0.0342294700
    8       -0.0000000000
    9       -0.0000000000
   10        0.1788076400
   11       -0.1779263900
   12       -0.0000000000
   13       -0.0000000000
   14        5.4804204100
   15        2.6429339300
   16       -0.0000000000
   17       -0.0000000000
   18       -0.0133180100
   19        0.0061539100
   20        0.0061539100
   21       -0.0000000000
   22        0.0000000000
   23       -0.0000000000
   24        0.0299789100
   25        0.0470414200
   26       -0.0070563400
   27       -0.0000000000
   28        0.0000000000
   29       -0.1914740500
   30        0.0342294700
   31        0.0000000000
   32        0.0000000000
   33       -0.1788076400
   34       -0.1779263900
   35       -0.0000000000
   36        0.0000000000
   37       -5.4804204100
   38        2.6429339300
   39        0.0000000000
   40        0.0000000000
   41        0.0133180100
   42       -0.0061539100
   43       -0.0061539100
   44       -0.0000000000
   45        0.0000000000
   46        0.0000000000
 Ene=          0.03394550
 Spin= Alpha
 Occup=        0.00000000
    1       -0.0000000000
    2       -0.0000000000
    3        0.0000000000
    4        0.0938975600
    5       -0.0078398100
    6        0.0000000000
    7        0.0000000000
    8        0.0828572700
    9       -0.0069180200
   10        0.0000000000
   11       -0.0000000000
   12        0.4196028000
   13       -0.0350339900
   14       -0.0000000000
   15       -0.0000000000
   16       -0.7276647800
   17        0.0607550700
   18       -0.0000000000
   19       -0.0000000000
   20       -0.0000000000
   21        0.0174619800
   22       -0.0014579600
   23        0.0000000000
   24        0.0000000000
   25        0.0000000000
   26       -0.0000000000
   27        0.0938975600
   28       -0.0078398100
   29       -0.0000000000
   30        0.0000000000
   31        0.0828572700
   32       -0.0069180200
   33       -0.0000000000
   34       -0.0000000000
   35        0.4196028000
   36       -0.0350339900
   37        0.0000000000
   38        0.0000000000
   39       -0.7276647800
   40        0.0607550700
   41        0.0000000000
   42        0.0000000000
   43        0.0000000000
   44       -0.0174619800
   45        0.0014579600
   46       -0.0000000000
 Ene=          0.03394550
 Spin= Alpha
 Occup=        0.00000000
    1       -0.0000000000
    2       -0.0000000000
    3       -0.0000000000
    4        0.0078398100
    5        0.0938975600
    6        0.0000000000
    7        0.0000000000
    8        0.0069180200
    9        0.0828572700
   10        0.0000000000
   11       -0.0000000000
   12        0.0350339900
   13        0.4196028000
   14       -0.0000000000
   15       -0.0000000000
   16       -0.0607550700
   17       -0.7276647800
   18       -0.0000000000
   19       -0.0000000000
   20       -0.0000000000
   21        0.0014579600
   22        0.0174619800
   23        0.0000000000
   24        0.0000000000
   25        0.0000000000
   26       -0.0000000000
   27        0.0078398100
   28        0.0938975600
   29       -0.0000000000
   30        0.0000000000
   31        0.0069180200
   32        0.0828572700
   33       -0.0000000000
   34        0.0000000000
   35        0.0350339900
   36        0.4196028000
   37        0.0000000000
   38       -0.0000000000
   39       -0.0607550700
   40       -0.7276647800
   41        0.0000000000
   42        0.0000000000
   43        0.0000000000
   44       -0.0014579600
   45       -0.0174619800
   46        0.0000000000
 Ene=          0.04104560
 Spin= Alpha
 Occup=        0.00000000
    1       -0.0070920800
    2       -0.0132463500
    3        0.0583779600
    4        0.0000000000
    5       -0.0000000000
    6        0.0223007000
    7        0.0461755600
    8       -0.0000000000
    9       -0.0000000000
   10        0.3574412500
   11        0.2267512800
   12        0.0000000000
   13       -0.0000000000
   14        0.0088437200
   15       -1.4059100100
   16       -0.0000000000
   17        0.0000000000
   18        0.0205628100
   19       -0.0224364500
   20       -0.0224364500
   21       -0.0000000000
   22       -0.0000000000
   23       -0.0000000000
   24       -0.0070920800
   25       -0.0132463500
   26       -0.0583779600
   27       -0.0000000000
   28       -0.0000000000
   29        0.0223007000
   30       -0.0461755600
   31        0.0000000000
   32        0.0000000000
   33        0.3574412500
   34       -0.2267512800
   35       -0.0000000000
   36       -0.0000000000
   37        0.0088437200
   38        1.4059100100
   39        0.0000000000
   40        0.0000000000
   41        0.0205628100
   42       -0.0224364500
   43       -0.0224364500
   44       -0.0000000000
   45        0.0000000000
   46       -0.0000000000
 Ene=          0.05524930
 Spin= Alpha
 Occup=        0.00000000
    1       -0.0000000000
    2       -0.0000000000
    3        0.0000000000
    4       -0.1276820900
    5       -0.0007168400
    6        0.0000000000
    7        0.0000000000
    8       -0.1265780800
    9       -0.0007106500
   10        0.0000000000
   11        0.0000000000
   12       -0.6952381700
   13       -0.0039032600
   14        0.0000000000
   15        0.0000000000
   16        1.9587856700
   17        0.0109971800
   18       -0.0000000000
   19       -0.0000000000
   20        0.0000000000
   21        0.0025974600
   22        0.0000145800
   23        0.0000000000
   24        0.0000000000
   25        0.0000000000
   26        0.0000000000
   27        0.1276820900
   28        0.0007168400
   29       -0.0000000000
   30        0.0000000000
   31        0.1265780800
   32        0.0007106500
   33       -0.0000000000
   34       -0.0000000000
   35        0.6952381700
   36        0.0039032600
   37       -0.0000000000
   38        0.0000000000
   39       -1.9587856700
   40       -0.0109971800
   41        0.0000000000
   42        0.0000000000
   43       -0.0000000000
   44        0.0025974600
   45        0.0000145800
   46        0.0000000000
 Ene=          0.05524930
 Spin= Alpha
 Occup=        0.00000000
    1        0.0000000000
    2        0.0000000000
    3        0.0000000000
    4       -0.0007168400
    5        0.1276820900
    6       -0.0000000000
    7       -0.0000000000
    8       -0.0007106500
    9        0.1265780800
   10       -0.0000000000
   11        0.0000000000
   12       -0.0039032600
   13        0.6952381700
   14        0.0000000000
   15        0.0000000000
   16        0.0109971800
   17       -1.9587856700
   18        0.0000000000
   19        0.0000000000
   20        0.0000000000
   21        0.0000145800
   22       -0.0025974600
   23       -0.0000000000
   24       -0.0000000000
   25       -0.0000000000
   26        0.0000000000
   27        0.0007168400
   28       -0.1276820900
   29       -0.0000000000
   30       -0.0000000000
   31        0.0007106500
   32       -0.1265780800
   33        0.0000000000
   34       -0.0000000000
   35        0.0039032600
   36       -0.6952381700
   37       -0.0000000000
   38        0.0000000000
   39       -0.0109971800
   40        1.9587856700
   41       -0.0000000000
   42       -0.0000000000
   43       -0.0000000000
   44        0.0000145800
   45       -0.0025974600
   46       -0.0000000000
 Ene=          0.07334450
 Spin= Alpha
 Occup=        0.00000000
    1       -0.0151046800
    2       -0.0290308900
    3       -0.0466628200
    4        0.0000000000
    5        0.0000000000
    6        0.0105683400
    7       -0.0028919200
    8        0.0000000000
    9        0.0000000000
   10        1.0065889000
   11       -0.4463991100
   12       -0.0000000000
   13        0.0000000000
   14      -21.5930456800
   15       -6.9833106700
   16        0.0000000000
   17       -0.0000000000
   18        0.0019794600
   19       -0.0315808500
   20       -0.0315808500
   21        0.0000000000
   22       -0.0000000000
   23       -0.0000000000
   24        0.0151046800
   25        0.0290308900
   26       -0.0466628200
   27       -0.0000000000
   28       -0.0000000000
   29       -0.0105683400
   30       -0.0028919200
   31       -0.0000000000
   32       -0.0000000000
   33       -1.0065889000
   34       -0.4463991100
   35       -0.0000000000
   36       -0.0000000000
   37       21.5930456800
   38       -6.9833106700
   39        0.0000000000
   40        0.0000000000
   41       -0.0019794600
   42        0.0315808500
   43        0.0315808500
   44        0.0000000000
   45       -0.0000000000
   46        0.0000000000
 Ene=          0.11476100
 Spin= Alpha
 Occup=        0.00000000
    1        0.0462418900
    2        0.0784894400
    3       -0.1503323200
    4       -0.0000000000
    5       -0.0000000000
    6       -0.1765069900
    7       -0.1465969100
    8       -0.0000000000
    9       -0.0000000000
   10       -2.9633012400
   11       -2.3774588300
   12       -0.0000000000
   13       -0.0000000000
   14        6.7724602300
   15        2.7827804700
   16       -0.0000000000
   17        0.0000000000
   18        0.0691997900
   19       -0.0014113800
   20       -0.0014113800
   21       -0.0000000000
   22        0.0000000000
   23        0.0000000000
   24       -0.0462418900
   25       -0.0784894400
   26       -0.1503323200
   27        0.0000000000
   28        0.0000000000
   29        0.1765069900
   30       -0.1465969100
   31        0.0000000000
   32        0.0000000000
   33        2.9633012400
   34       -2.3774588300
   35       -0.0000000000
   36        0.0000000000
   37       -6.7724602300
   38        2.7827804700
   39       -0.0000000000
   40       -0.0000000000
   41       -0.0691997900
   42        0.0014113800
   43        0.0014113800
   44       -0.0000000000
   45       -0.0000000000
   46       -0.0000000000
 Ene=          0.20299200
 Spin= Alpha
 Occup=        0.00000000
    1       -0.0049389200
    2        0.0004522300
    3        0.1107005800
    4        0.0000000000
    5       -0.0000000000
    6        0.3661397700
    7        0.6764313900
    8        0.0000000000
    9       -0.0000000000
   10       -0.3614252900
   11       -1.4676015700
   12       -0.0000000000
   13        0.0000000000
   14       -0.0226054400
   15        1.0940391300
   16        0.0000000000
   17       -0.0000000000
   18        0.1028886700
   19        0.0127771100
   20        0.0127771100
   21        0.0000000000
   22        0.0000000000
   23       -0.0000000000
   24       -0.0049389200
   25        0.0004522300
   26       -0.1107005800
   27       -0.0000000000
   28       -0.0000000000
   29        0.3661397700
   30       -0.6764313900
   31       -0.0000000000
   32        0.0000000000
   33       -0.3614252900
   34        1.4676015700
   35        0.0000000000
   36       -0.0000000000
   37       -0.0226054400
   38       -1.0940391300
   39       -0.0000000000
   40        0.0000000000
   41        0.1028886700
   42        0.0127771100
   43        0.0127771100
   44       -0.0000000000
   45       -0.0000000000
   46       -0.0000000000
 Ene=          0.22221000
 Spin= Alpha
 Occup=        0.00000000
    1        0.0000000000
    2        0.0000000000
    3        0.0000000000
    4        0.1597167800
    5       -0.0232616600
    6       -0.0000000000
    7        0.0000000000
    8        0.7990563300
    9       -0.1163771200
   10        0.0000000000
   11       -0.0000000000
   12       -1.2107169700
   13        0.1763327000
   14        0.0000000000
   15        0.0000000000
   16        0.5356331600
   17       -0.0780113300
   18       -0.0000000000
   19       -0.0000000000
   20       -0.0000000000
   21        0.0470024700
   22       -0.0068455900
   23       -0.0000000000
   24        0.0000000000
   25        0.0000000000
   26       -0.0000000000
   27        0.1597167800
   28       -0.0232616600
   29       -0.0000000000
   30       -0.0000000000
   31        0.7990563300
   32       -0.1163771200
   33        0.0000000000
   34        0.0000000000
   35       -1.2107169700
   36        0.1763327000
   37       -0.0000000000
   38        0.0000000000
   39        0.5356331600
   40       -0.0780113300
   41       -0.0000000000
   42       -0.0000000000
   43       -0.0000000000
   44       -0.0470024700
   45        0.0068455900
   46        0.0000000000
 Ene=          0.22221000
 Spin= Alpha
 Occup=        0.00000000
    1       -0.0000000000
    2       -0.0000000000
    3       -0.0000000000
    4       -0.0232616600
    5       -0.1597167800
    6        0.0000000000
    7       -0.0000000000
    8       -0.1163771200
    9       -0.7990563300
   10       -0.0000000000
   11        0.0000000000
   12        0.1763327000
   13        1.2107169700
   14        0.0000000000
   15        0.0000000000
   16       -0.0780113300
   17       -0.5356331600
   18        0.0000000000
   19        0.0000000000
   20        0.0000000000
   21       -0.0068455900
   22       -0.0470024700
   23       -0.0000000000
   24       -0.0000000000
   25       -0.0000000000
   26        0.0000000000
   27       -0.0232616600
   28       -0.1597167800
   29        0.0000000000
   30        0.0000000000
   31       -0.1163771200
   32       -0.7990563300
   33       -0.0000000000
   34       -0.0000000000
   35        0.1763327000
   36        1.2107169700
   37       -0.0000000000
   38        0.0000000000
   39       -0.0780113300
   40       -0.5356331600
   41        0.0000000000
   42        0.0000000000
   43        0.0000000000
   44        0.0068455900
   45        0.0470024700
   46       -0.0000000000
 Ene=          0.22807900
 Spin= Alpha
 Occup=        0.00000000
    1       -0.0726759500
    2       -0.0870163200
    3       -0.0592474000
    4        0.0000000000
    5        0.0000000000
    6        1.3232931800
    7       -0.1948806600
    8        0.0000000000
    9        0.0000000000
   10       -2.2780021600
   11        0.2970855900
   12       -0.0000000000
   13       -0.0000000000
   14        0.9064147200
   15        0.0824980800
   16        0.0000000000
   17        0.0000000000
   18        0.1821536200
   19        0.1230742300
   20        0.1230742300
   21        0.0000000000
   22        0.0000000000
   23       -0.0000000000
   24       -0.0726759500
   25       -0.0870163200
   26        0.0592474000
   27        0.0000000000
   28       -0.0000000000
   29        1.3232931800
   30        0.1948806600
   31        0.0000000000
   32       -0.0000000000
   33       -2.2780021600
   34       -0.2970855900
   35       -0.0000000000
   36        0.0000000000
   37        0.9064147200
   38       -0.0824980800
   39       -0.0000000000
   40       -0.0000000000
   41        0.1821536200
   42        0.1230742300
   43        0.1230742300
   44       -0.0000000000
   45       -0.0000000000
   46       -0.0000000000
 Ene=          0.24139500
 Spin= Alpha
 Occup=        0.00000000
    1        0.0000000000
    2        0.0000000000