 Molden2AIM, Version 3.1.0 (02/25/2015)           Time: Mon Dec  2 17:31:01 2024
GAUSSIAN             46 MOL ORBITALS     72 PRIMITIVES        2 NUCLEI
  Be   1    (CENTRE  1)   0.00000000  0.00000000  0.00000000  CHARGE =  4.0
  Be   2    (CENTRE  2)   4.54000000  0.00000000  0.00000000  CHARGE =  4.0
CENTRE ASSIGNMENTS    1  1  1  1  1  1  1  1  1  1  1  1  1  1  1  1  1  1  1  1
CENTRE ASSIGNMENTS    1  1  1  1  1  1  1  1  1  1  1  1  1  1  1  1  2  2  2  2
CENTRE ASSIGNMENTS    2  2  2  2  2  2  2  2  2  2  2  2  2  2  2  2  2  2  2  2
CENTRE ASSIGNMENTS    2  2  2  2  2  2  2  2  2  2  2  2
TYPE ASSIGNMENTS      1  1  1  1  1  1  1  1  1  2  2  2  3  3  3  4  4  4  1  2
TYPE ASSIGNMENTS      3  4  1  2  3  4  1  2  3  4  5  6  7  8  9 10  1  1  1  1
TYPE ASSIGNMENTS      1  1  1  1  1  2  2  2  3  3  3  4  4  4  1  2  3  4  1  2
TYPE ASSIGNMENTS      3  4  1  2  3  4  5  6  7  8  9 10
EXPONENTS  0.1682800D+04 0.2517150D+03 0.5741160D+02 0.1651710D+02 0.4853640D+01
EXPONENTS  0.6268630D+00 0.8309380D+01 0.1740750D+01 0.4858160D+00 0.8309380D+01
EXPONENTS  0.1740750D+01 0.4858160D+00 0.8309380D+01 0.1740750D+01 0.4858160D+00
EXPONENTS  0.8309380D+01 0.1740750D+01 0.4858160D+00 0.1636130D+00 0.1636130D+00
EXPONENTS  0.1636130D+00 0.1636130D+00 0.5672850D-01 0.5672850D-01 0.5672850D-01
EXPONENTS  0.5672850D-01 0.2070000D-01 0.2070000D-01 0.2070000D-01 0.2070000D-01
EXPONENTS  0.2550000D+00 0.2550000D+00 0.2550000D+00 0.2550000D+00 0.2550000D+00
EXPONENTS  0.2550000D+00 0.1682800D+04 0.2517150D+03 0.5741160D+02 0.1651710D+02
EXPONENTS  0.4853640D+01 0.6268630D+00 0.8309380D+01 0.1740750D+01 0.4858160D+00
EXPONENTS  0.8309380D+01 0.1740750D+01 0.4858160D+00 0.8309380D+01 0.1740750D+01
EXPONENTS  0.4858160D+00 0.8309380D+01 0.1740750D+01 0.4858160D+00 0.1636130D+00
EXPONENTS  0.1636130D+00 0.1636130D+00 0.1636130D+00 0.5672850D-01 0.5672850D-01
EXPONENTS  0.5672850D-01 0.5672850D-01 0.2070000D-01 0.2070000D-01 0.2070000D-01
EXPONENTS  0.2070000D-01 0.2550000D+00 0.2550000D+00 0.2550000D+00 0.2550000D+00
EXPONENTS  0.2550000D+00 0.2550000D+00
MO    1     MO 0.0        OCC NO =    2.0000000  ORB. ENERGY =   -4.076050
  0.18035370D+00  0.33389916D+00  0.54074546D+00  0.69345635D+00  0.62908220D+00
  0.30564830D-01  0.11649043D+00  0.30794491D+00 -0.37892858D-03  0.13700148D-03
  0.11658423D-03  0.91761909D-04  0.00000000D+00  0.00000000D+00  0.00000000D+00
 -0.00000000D+00 -0.00000000D+00 -0.00000000D+00  0.45843331D-02  0.23005101D-05
 -0.00000000D+00  0.00000000D+00  0.14306911D-03  0.54360485D-05  0.00000000D+00
 -0.00000000D+00 -0.28192267D-04 -0.32808994D-05 -0.00000000D+00  0.00000000D+00
 -0.13023547D-02 -0.13599812D-02 -0.13599812D-02 -0.00000000D+00 -0.00000000D+00
  0.00000000D+00  0.18035370D+00  0.33389916D+00  0.54074546D+00  0.69345635D+00
  0.62908220D+00  0.30564830D-01  0.11649043D+00  0.30794491D+00 -0.37892858D-03
 -0.13700148D-03 -0.11658423D-03 -0.91761909D-04 -0.00000000D+00 -0.00000000D+00
 -0.00000000D+00  0.00000000D+00  0.00000000D+00  0.00000000D+00  0.45843331D-02
 -0.23005101D-05  0.00000000D+00 -0.00000000D+00  0.14306911D-03 -0.54360485D-05
 -0.00000000D+00  0.00000000D+00 -0.28192267D-04  0.32808994D-05  0.00000000D+00
 -0.00000000D+00 -0.13023547D-02 -0.13599812D-02 -0.13599812D-02 -0.00000000D+00
  0.00000000D+00 -0.00000000D+00
MO    2     MO 0.0        OCC NO =    2.0000000  ORB. ENERGY =   -4.076000
  0.18037438D+00  0.33393745D+00  0.54080747D+00  0.69353587D+00  0.62915434D+00
  0.30568335D-01  0.11648078D+00  0.30791939D+00 -0.37889718D-03  0.24647768D-03
  0.20974525D-03  0.16508772D-03  0.00000000D+00  0.00000000D+00  0.00000000D+00
  0.00000000D+00  0.00000000D+00  0.00000000D+00  0.45376878D-02 -0.29861244D-03
  0.00000000D+00 -0.00000000D+00  0.47081157D-03  0.88534386D-04 -0.00000000D+00
  0.00000000D+00 -0.45973691D-03 -0.42114818D-04 -0.00000000D+00 -0.00000000D+00
 -0.15768028D-02 -0.13697859D-02 -0.13697859D-02 -0.00000000D+00  0.00000000D+00
  0.00000000D+00 -0.18037438D+00 -0.33393745D+00 -0.54080747D+00 -0.69353587D+00
 -0.62915434D+00 -0.30568335D-01 -0.11648078D+00 -0.30791939D+00  0.37889718D-03
  0.24647768D-03  0.20974525D-03  0.16508772D-03  0.00000000D+00  0.00000000D+00
  0.00000000D+00  0.00000000D+00  0.00000000D+00  0.00000000D+00 -0.45376878D-02
 -0.29861244D-03 -0.00000000D+00  0.00000000D+00 -0.47081157D-03  0.88534386D-04
  0.00000000D+00 -0.00000000D+00  0.45973691D-03 -0.42114818D-04 -0.00000000D+00
  0.00000000D+00  0.15768028D-02  0.13697859D-02  0.13697859D-02  0.00000000D+00
  0.00000000D+00 -0.00000000D+00
MO    3     MO 0.0        OCC NO =    2.0000000  ORB. ENERGY =   -0.295884
  0.36685806D-01  0.67918538D-01  0.10999321D+00  0.14105618D+00  0.12796182D+00
  0.62172022D-02  0.48274252D-01  0.12761400D+00 -0.15703001D-03 -0.45134459D-01
 -0.38408097D-01 -0.30230507D-01  0.00000000D+00  0.00000000D+00  0.00000000D+00
  0.00000000D+00  0.00000000D+00  0.00000000D+00 -0.75397352D-01 -0.13308046D-01
  0.00000000D+00  0.00000000D+00 -0.17261967D-01 -0.66455624D-03 -0.00000000D+00
 -0.00000000D+00 -0.12933189D-04  0.21003464D-04  0.00000000D+00 -0.00000000D+00
 -0.19786915D-02  0.17613321D-02  0.17613321D-02  0.00000000D+00  0.00000000D+00
 -0.00000000D+00  0.36685806D-01  0.67918538D-01  0.10999321D+00  0.14105618D+00
  0.12796182D+00  0.62172022D-02  0.48274252D-01  0.12761400D+00 -0.15703001D-03
  0.45134459D-01  0.38408097D-01  0.30230507D-01  0.00000000D+00  0.00000000D+00
  0.00000000D+00  0.00000000D+00  0.00000000D+00  0.00000000D+00 -0.75397352D-01
  0.13308046D-01 -0.00000000D+00  0.00000000D+00 -0.17261967D-01  0.66455624D-03
  0.00000000D+00 -0.00000000D+00 -0.12933189D-04 -0.21003464D-04 -0.00000000D+00
  0.00000000D+00 -0.19786915D-02  0.17613321D-02  0.17613321D-02  0.00000000D+00
 -0.00000000D+00  0.00000000D+00
MO    4     MO 0.0        OCC NO =    2.0000000  ORB. ENERGY =   -0.182158
  0.35735475D-01  0.66159135D-01  0.10714388D+00  0.13740218D+00  0.12464702D+00
  0.60561480D-02  0.48185022D-01  0.12737812D+00 -0.15673976D-03  0.47099486D-01
  0.40080278D-01  0.31546658D-01 -0.00000000D+00 -0.00000000D+00 -0.00000000D+00
  0.00000000D+00  0.00000000D+00  0.00000000D+00 -0.77412365D-01  0.13597308D-01
 -0.00000000D+00  0.00000000D+00 -0.36193832D-01  0.16889611D-02 -0.00000000D+00
 -0.00000000D+00 -0.13619342D-02  0.11473366D-03 -0.00000000D+00  0.00000000D+00
  0.16341462D-02  0.24243745D-03  0.24243745D-03  0.00000000D+00  0.00000000D+00
 -0.00000000D+00 -0.35735475D-01 -0.66159135D-01 -0.10714388D+00 -0.13740218D+00
 -0.12464702D+00 -0.60561480D-02 -0.48185022D-01 -0.12737812D+00  0.15673976D-03
  0.47099486D-01  0.40080278D-01  0.31546658D-01  0.00000000D+00  0.00000000D+00
  0.00000000D+00  0.00000000D+00  0.00000000D+00  0.00000000D+00  0.77412365D-01
  0.13597308D-01 -0.00000000D+00  0.00000000D+00  0.36193832D-01  0.16889611D-02
  0.00000000D+00  0.00000000D+00  0.13619342D-02  0.11473366D-03 -0.00000000D+00
 -0.00000000D+00 -0.16341462D-02 -0.24243745D-03 -0.24243745D-03 -0.00000000D+00
 -0.00000000D+00 -0.00000000D+00
MO    5     MO 0.0        OCC NO =    0.0000000  ORB. ENERGY =   -0.083106
 -0.67874739D-02 -0.12566040D-01 -0.20350542D-01 -0.26097700D-01 -0.23675028D-01
 -0.11502840D-02 -0.92659244D-02 -0.24494666D-01  0.30140875D-04 -0.13530859D+00
 -0.11514363D+00 -0.90628030D-01  0.00000000D+00  0.00000000D+00  0.00000000D+00
 -0.00000000D+00 -0.00000000D+00 -0.00000000D+00  0.12831480D-01 -0.41710227D-01
  0.00000000D+00 -0.00000000D+00  0.16756984D-01 -0.93822783D-02  0.00000000D+00
 -0.00000000D+00  0.43984927D-02 -0.69080051D-03 -0.00000000D+00 -0.00000000D+00
 -0.23982241D-02  0.85247708D-03  0.85247708D-03  0.00000000D+00 -0.00000000D+00
 -0.00000000D+00 -0.67874739D-02 -0.12566040D-01 -0.20350542D-01 -0.26097700D-01
 -0.23675028D-01 -0.11502840D-02 -0.92659244D-02 -0.24494666D-01  0.30140875D-04
  0.13530859D+00  0.11514363D+00  0.90628030D-01  0.00000000D+00  0.00000000D+00
  0.00000000D+00 -0.00000000D+00 -0.00000000D+00 -0.00000000D+00  0.12831480D-01
  0.41710227D-01  0.00000000D+00 -0.00000000D+00  0.16756984D-01  0.93822783D-02
  0.00000000D+00 -0.00000000D+00  0.43984927D-02  0.69080051D-03  0.00000000D+00
 -0.00000000D+00 -0.23982241D-02  0.85247708D-03  0.85247708D-03 -0.00000000D+00
  0.00000000D+00 -0.00000000D+00
MO    6     MO 0.0        OCC NO =    0.0000000  ORB. ENERGY =   -0.081149
 -0.00000000D+00 -0.00000000D+00 -0.00000000D+00 -0.00000000D+00 -0.00000000D+00
 -0.00000000D+00 -0.00000000D+00 -0.00000000D+00  0.00000000D+00 -0.00000000D+00
 -0.00000000D+00 -0.00000000D+00 -0.43454552D-02 -0.36978546D-02 -0.29105326D-02
  0.11590895D+00  0.98635111D-01  0.77634395D-01  0.00000000D+00 -0.00000000D+00
 -0.14176096D-02  0.37812721D-01  0.00000000D+00 -0.00000000D+00 -0.38157509D-03
  0.10177978D-01 -0.00000000D+00 -0.00000000D+00 -0.26314794D-04  0.70191046D-03
 -0.00000000D+00 -0.00000000D+00 -0.00000000D+00 -0.21608992D-03  0.57638641D-02
  0.00000000D+00 -0.00000000D+00 -0.00000000D+00 -0.00000000D+00 -0.00000000D+00
 -0.00000000D+00 -0.00000000D+00 -0.00000000D+00 -0.00000000D+00  0.00000000D+00
  0.00000000D+00  0.00000000D+00  0.00000000D+00 -0.43454552D-02 -0.36978546D-02
 -0.29105326D-02  0.11590895D+00  0.98635111D-01  0.77634395D-01  0.00000000D+00
  0.00000000D+00 -0.14176096D-02  0.37812721D-01 -0.00000000D+00  0.00000000D+00
 -0.38157509D-03  0.10177978D-01  0.00000000D+00 -0.00000000D+00 -0.26314794D-04
  0.70191046D-03  0.00000000D+00  0.00000000D+00  0.00000000D+00  0.21608992D-03
 -0.57638641D-02  0.00000000D+00
MO    7     MO 0.0        OCC NO =    0.0000000  ORB. ENERGY =   -0.081149
 -0.00000000D+00 -0.00000000D+00 -0.00000000D+00 -0.00000000D+00 -0.00000000D+00
 -0.00000000D+00  0.00000000D+00  0.00000000D+00 -0.00000000D+00 -0.00000000D+00
 -0.00000000D+00 -0.00000000D+00 -0.11590895D+00 -0.98635111D-01 -0.77634395D-01
 -0.43454552D-02 -0.36978546D-02 -0.29105326D-02  0.00000000D+00 -0.00000000D+00
 -0.37812721D-01 -0.14176096D-02 -0.00000000D+00 -0.00000000D+00 -0.10177978D-01
 -0.38157509D-03  0.00000000D+00  0.00000000D+00 -0.70191046D-03 -0.26314794D-04
  0.00000000D+00  0.00000000D+00  0.00000000D+00 -0.57638641D-02 -0.21608992D-03
  0.00000000D+00 -0.00000000D+00 -0.00000000D+00 -0.00000000D+00 -0.00000000D+00
 -0.00000000D+00 -0.00000000D+00 -0.00000000D+00 -0.00000000D+00  0.00000000D+00
  0.00000000D+00  0.00000000D+00  0.00000000D+00 -0.11590895D+00 -0.98635111D-01
 -0.77634395D-01 -0.43454552D-02 -0.36978546D-02 -0.29105326D-02 -0.00000000D+00
  0.00000000D+00 -0.37812721D-01 -0.14176096D-02  0.00000000D+00 -0.00000000D+00
 -0.10177978D-01 -0.38157509D-03 -0.00000000D+00  0.00000000D+00 -0.70191046D-03
 -0.26314794D-04 -0.00000000D+00 -0.00000000D+00 -0.00000000D+00  0.57638641D-02
  0.21608992D-03  0.00000000D+00
MO    8     MO 0.0        OCC NO =    0.0000000  ORB. ENERGY =   -0.010289
 -0.00000000D+00 -0.00000000D+00 -0.00000000D+00 -0.00000000D+00 -0.00000000D+00
 -0.00000000D+00  0.00000000D+00  0.00000000D+00 -0.00000000D+00 -0.00000000D+00
 -0.00000000D+00 -0.00000000D+00  0.42372528D-01  0.36057775D-01  0.28380599D-01
 -0.11179361D+00 -0.95133071D-01 -0.74877985D-01 -0.00000000D+00 -0.00000000D+00
  0.13725862D-01 -0.36213645D-01 -0.00000000D+00 -0.00000000D+00  0.58711735D-02
 -0.15490218D-01  0.00000000D+00  0.00000000D+00  0.20288105D-02 -0.53527146D-02
  0.00000000D+00  0.00000000D+00  0.00000000D+00 -0.19058361D-02  0.50282620D-02
 -0.00000000D+00 -0.00000000D+00 -0.00000000D+00 -0.00000000D+00 -0.00000000D+00
 -0.00000000D+00 -0.00000000D+00 -0.00000000D+00 -0.00000000D+00  0.00000000D+00
  0.00000000D+00  0.00000000D+00  0.00000000D+00 -0.42372528D-01 -0.36057775D-01
 -0.28380599D-01  0.11179361D+00  0.95133071D-01  0.74877985D-01  0.00000000D+00
  0.00000000D+00 -0.13725862D-01  0.36213645D-01  0.00000000D+00 -0.00000000D+00
 -0.58711735D-02  0.15490218D-01 -0.00000000D+00  0.00000000D+00 -0.20288105D-02
  0.53527146D-02  0.00000000D+00 -0.00000000D+00  0.00000000D+00 -0.19058361D-02
  0.50282620D-02  0.00000000D+00
MO    9     MO 0.0        OCC NO =    0.0000000  ORB. ENERGY =   -0.010289
 -0.00000000D+00 -0.00000000D+00 -0.00000000D+00 -0.00000000D+00 -0.00000000D+00
 -0.00000000D+00  0.00000000D+00  0.00000000D+00 -0.00000000D+00 -0.00000000D+00
 -0.00000000D+00 -0.00000000D+00 -0.11179361D+00 -0.95133071D-01 -0.74877985D-01
 -0.42372528D-01 -0.36057775D-01 -0.28380599D-01  0.00000000D+00  0.00000000D+00
 -0.36213645D-01 -0.13725862D-01 -0.00000000D+00 -0.00000000D+00 -0.15490218D-01
 -0.58711735D-02  0.00000000D+00  0.00000000D+00 -0.53527146D-02 -0.20288105D-02
  0.00000000D+00  0.00000000D+00  0.00000000D+00  0.50282620D-02  0.19058361D-02
 -0.00000000D+00 -0.00000000D+00 -0.00000000D+00 -0.00000000D+00 -0.00000000D+00
 -0.00000000D+00 -0.00000000D+00 -0.00000000D+00 -0.00000000D+00  0.00000000D+00
 -0.00000000D+00 -0.00000000D+00 -0.00000000D+00  0.11179361D+00  0.95133071D-01
  0.74877985D-01  0.42372528D-01  0.36057775D-01  0.28380599D-01  0.00000000D+00
 -0.00000000D+00  0.36213645D-01  0.13725862D-01  0.00000000D+00  0.00000000D+00
  0.15490218D-01  0.58711735D-02 -0.00000000D+00  0.00000000D+00  0.53527146D-02
  0.20288105D-02 -0.00000000D+00 -0.00000000D+00 -0.00000000D+00  0.50282620D-02
  0.19058361D-02 -0.00000000D+00
MO   10     MO 0.0        OCC NO =    0.0000000  ORB. ENERGY =    0.018391
  0.12923694D-01  0.23926376D-01  0.38748462D-01  0.49691341D-01  0.45078451D-01
  0.21901990D-02  0.19662333D-01  0.51977790D-01 -0.63959070D-04  0.45810471D-01
  0.38983363D-01  0.30683291D-01  0.00000000D+00  0.00000000D+00  0.00000000D+00
  0.00000000D+00  0.00000000D+00  0.00000000D+00 -0.25199587D-01  0.90020058D-02
 -0.00000000D+00 -0.00000000D+00 -0.69588019D-01  0.97705341D-02 -0.00000000D+00
  0.00000000D+00  0.40093786D-01 -0.26160274D-02 -0.00000000D+00  0.00000000D+00
  0.15879842D-02  0.33699845D-02  0.33699845D-02 -0.00000000D+00 -0.00000000D+00
 -0.00000000D+00  0.12923694D-01  0.23926376D-01  0.38748462D-01  0.49691341D-01
  0.45078451D-01  0.21901990D-02  0.19662333D-01  0.51977790D-01 -0.63959070D-04
 -0.45810471D-01 -0.38983363D-01 -0.30683291D-01 -0.00000000D+00 -0.00000000D+00
 -0.00000000D+00  0.00000000D+00  0.00000000D+00  0.00000000D+00 -0.25199587D-01
 -0.90020058D-02 -0.00000000D+00  0.00000000D+00 -0.69588019D-01 -0.97705341D-02
 -0.00000000D+00  0.00000000D+00  0.40093786D-01  0.26160274D-02  0.00000000D+00
 -0.00000000D+00  0.15879842D-02  0.33699845D-02  0.33699845D-02  0.00000000D+00
 -0.00000000D+00 -0.00000000D+00
MO   11     MO 0.0        OCC NO =    0.0000000  ORB. ENERGY =    0.019451
 -0.12831494D-01 -0.23755682D-01 -0.38472026D-01 -0.49336837D-01 -0.44756856D-01
 -0.21745739D-02 -0.17823004D-01 -0.47115486D-01  0.57975968D-04 -0.51274478D-02
 -0.43633073D-02 -0.34343016D-02 -0.00000000D+00 -0.00000000D+00 -0.00000000D+00
 -0.00000000D+00 -0.00000000D+00 -0.00000000D+00  0.35106164D-01  0.50770626D-02
 -0.00000000D+00 -0.00000000D+00  0.14813140D-01 -0.70215353D-02 -0.00000000D+00
 -0.00000000D+00  0.21315804D+00  0.29579398D-01 -0.00000000D+00 -0.00000000D+00
 -0.20058299D-02  0.92684244D-03  0.92684244D-03 -0.00000000D+00  0.00000000D+00
 -0.00000000D+00  0.12831494D-01  0.23755682D-01  0.38472026D-01  0.49336837D-01
  0.44756856D-01  0.21745739D-02  0.17823004D-01  0.47115486D-01 -0.57975968D-04
 -0.51274478D-02 -0.43633073D-02 -0.34343016D-02 -0.00000000D+00 -0.00000000D+00
 -0.00000000D+00  0.00000000D+00  0.00000000D+00  0.00000000D+00 -0.35106164D-01
  0.50770626D-02  0.00000000D+00  0.00000000D+00 -0.14813140D-01 -0.70215353D-02
 -0.00000000D+00  0.00000000D+00 -0.21315804D+00  0.29579398D-01  0.00000000D+00
  0.00000000D+00  0.20058299D-02 -0.92684244D-03 -0.92684244D-03 -0.00000000D+00
  0.00000000D+00  0.00000000D+00
MO   12     MO 0.0        OCC NO =    0.0000000  ORB. ENERGY =    0.033946
 -0.00000000D+00 -0.00000000D+00 -0.00000000D+00 -0.00000000D+00 -0.00000000D+00
 -0.00000000D+00 -0.00000000D+00 -0.00000000D+00  0.00000000D+00  0.00000000D+00
  0.00000000D+00  0.00000000D+00  0.68230108D-01  0.58061815D-01  0.45699689D-01
 -0.56967517D-02 -0.48477681D-02 -0.38156143D-02  0.00000000D+00  0.00000000D+00
  0.12289748D-01 -0.10261106D-02  0.00000000D+00 -0.00000000D+00  0.16558847D-01
 -0.13825515D-02 -0.00000000D+00 -0.00000000D+00 -0.81439364D-02  0.67996341D-03
 -0.00000000D+00 -0.00000000D+00 -0.00000000D+00  0.45552151D-02 -0.38033037D-03
  0.00000000D+00  0.00000000D+00  0.00000000D+00  0.00000000D+00  0.00000000D+00
  0.00000000D+00  0.00000000D+00  0.00000000D+00  0.00000000D+00 -0.00000000D+00
 -0.00000000D+00 -0.00000000D+00 -0.00000000D+00  0.68230108D-01  0.58061815D-01
  0.45699689D-01 -0.56967517D-02 -0.48477681D-02 -0.38156143D-02 -0.00000000D+00
  0.00000000D+00  0.12289748D-01 -0.10261106D-02 -0.00000000D+00 -0.00000000D+00
  0.16558847D-01 -0.13825515D-02  0.00000000D+00  0.00000000D+00 -0.81439364D-02
  0.67996341D-03  0.00000000D+00  0.00000000D+00  0.00000000D+00 -0.45552151D-02
  0.38033037D-03 -0.00000000D+00
MO   13     MO 0.0        OCC NO =    0.0000000  ORB. ENERGY =    0.033946
 -0.00000000D+00 -0.00000000D+00 -0.00000000D+00 -0.00000000D+00 -0.00000000D+00
 -0.00000000D+00 -0.00000000D+00 -0.00000000D+00  0.00000000D+00 -0.00000000D+00
 -0.00000000D+00 -0.00000000D+00  0.56967517D-02  0.48477681D-02  0.38156143D-02
  0.68230108D-01  0.58061815D-01  0.45699689D-01  0.00000000D+00  0.00000000D+00
  0.10261106D-02  0.12289748D-01  0.00000000D+00 -0.00000000D+00  0.13825515D-02
  0.16558847D-01 -0.00000000D+00 -0.00000000D+00 -0.67996341D-03 -0.81439364D-02
 -0.00000000D+00 -0.00000000D+00 -0.00000000D+00  0.38033037D-03  0.45552151D-02
  0.00000000D+00  0.00000000D+00  0.00000000D+00  0.00000000D+00  0.00000000D+00
  0.00000000D+00  0.00000000D+00  0.00000000D+00  0.00000000D+00 -0.00000000D+00
 -0.00000000D+00 -0.00000000D+00 -0.00000000D+00  0.56967517D-02  0.48477681D-02
  0.38156143D-02  0.68230108D-01  0.58061815D-01  0.45699689D-01 -0.00000000D+00
  0.00000000D+00  0.10261106D-02  0.12289748D-01 -0.00000000D+00  0.00000000D+00
  0.13825515D-02  0.16558847D-01  0.00000000D+00 -0.00000000D+00 -0.67996341D-03
 -0.81439364D-02  0.00000000D+00  0.00000000D+00  0.00000000D+00 -0.38033037D-03
 -0.45552151D-02  0.00000000D+00
MO   14     MO 0.0        OCC NO =    0.0000000  ORB. ENERGY =    0.041046
 -0.30355335D-02 -0.56198574D-02 -0.91012877D-02 -0.11671565D-01 -0.10588083D-01
 -0.51443671D-03 -0.50187633D-02 -0.13267206D-01  0.16325399D-04  0.42420000D-01
  0.36098172D-01  0.28412395D-01  0.00000000D+00  0.00000000D+00  0.00000000D+00
 -0.00000000D+00 -0.00000000D+00 -0.00000000D+00  0.40887631D-02  0.68489583D-02
 -0.00000000D+00 -0.00000000D+00  0.29611863D-01  0.89483191D-02  0.00000000D+00
 -0.00000000D+00  0.34397180D-03 -0.15734775D-01 -0.00000000D+00  0.00000000D+00
  0.30969717D-02 -0.33791612D-02 -0.33791612D-02 -0.00000000D+00 -0.00000000D+00
 -0.00000000D+00 -0.30355335D-02 -0.56198574D-02 -0.91012877D-02 -0.11671565D-01
 -0.10588083D-01 -0.51443671D-03 -0.50187633D-02 -0.13267206D-01  0.16325399D-04
 -0.42420000D-01 -0.36098172D-01 -0.28412395D-01 -0.00000000D+00 -0.00000000D+00
 -0.00000000D+00 -0.00000000D+00 -0.00000000D+00 -0.00000000D+00  0.40887631D-02
 -0.68489583D-02  0.00000000D+00  0.00000000D+00  0.29611863D-01 -0.89483191D-02
 -0.00000000D+00 -0.00000000D+00  0.34397180D-03  0.15734775D-01  0.00000000D+00
  0.00000000D+00  0.30969717D-02 -0.33791612D-02 -0.33791612D-02 -0.00000000D+00
  0.00000000D+00 -0.00000000D+00
MO   15     MO 0.0        OCC NO =    0.0000000  ORB. ENERGY =    0.055249
 -0.00000000D+00 -0.00000000D+00 -0.00000000D+00 -0.00000000D+00 -0.00000000D+00
 -0.00000000D+00 -0.00000000D+00 -0.00000000D+00  0.00000000D+00  0.00000000D+00
  0.00000000D+00  0.00000000D+00 -0.92779437D-01 -0.78952572D-01 -0.62142528D-01
 -0.52088755D-03 -0.44325999D-03 -0.34888409D-03  0.00000000D+00  0.00000000D+00
 -0.18774607D-01 -0.10540667D-03  0.00000000D+00  0.00000000D+00 -0.27436286D-01
 -0.15403492D-03  0.00000000D+00  0.00000000D+00  0.21922493D-01  0.12307911D-03
 -0.00000000D+00 -0.00000000D+00  0.00000000D+00  0.67758576D-03  0.38034081D-05
  0.00000000D+00  0.00000000D+00  0.00000000D+00  0.00000000D+00  0.00000000D+00
  0.00000000D+00  0.00000000D+00  0.00000000D+00  0.00000000D+00 -0.00000000D+00
  0.00000000D+00  0.00000000D+00  0.00000000D+00  0.92779437D-01  0.78952572D-01
  0.62142528D-01  0.52088755D-03  0.44325999D-03  0.34888409D-03 -0.00000000D+00
  0.00000000D+00  0.18774607D-01  0.10540667D-03 -0.00000000D+00 -0.00000000D+00
  0.27436286D-01  0.15403492D-03 -0.00000000D+00  0.00000000D+00 -0.21922493D-01
 -0.12307911D-03  0.00000000D+00  0.00000000D+00 -0.00000000D+00  0.67758576D-03
  0.38034081D-05  0.00000000D+00
MO   16     MO 0.0        OCC NO =    0.0000000  ORB. ENERGY =    0.055249
  0.00000000D+00  0.00000000D+00  0.00000000D+00  0.00000000D+00  0.00000000D+00
  0.00000000D+00  0.00000000D+00  0.00000000D+00 -0.00000000D+00  0.00000000D+00
  0.00000000D+00  0.00000000D+00 -0.52088755D-03 -0.44325999D-03 -0.34888409D-03
  0.92779437D-01  0.78952572D-01  0.62142528D-01 -0.00000000D+00 -0.00000000D+00
 -0.10540667D-03  0.18774607D-01 -0.00000000D+00  0.00000000D+00 -0.15403492D-03
  0.27436286D-01  0.00000000D+00  0.00000000D+00  0.12307911D-03 -0.21922493D-01
  0.00000000D+00  0.00000000D+00  0.00000000D+00  0.38034081D-05 -0.67758576D-03
 -0.00000000D+00 -0.00000000D+00 -0.00000000D+00 -0.00000000D+00 -0.00000000D+00
 -0.00000000D+00 -0.00000000D+00 -0.00000000D+00 -0.00000000D+00  0.00000000D+00
  0.00000000D+00  0.00000000D+00  0.00000000D+00  0.52088755D-03  0.44325999D-03
  0.34888409D-03 -0.92779437D-01 -0.78952572D-01 -0.62142528D-01 -0.00000000D+00
 -0.00000000D+00  0.10540667D-03 -0.18774607D-01  0.00000000D+00 -0.00000000D+00
  0.15403492D-03 -0.27436286D-01 -0.00000000D+00  0.00000000D+00 -0.12307911D-03
  0.21922493D-01 -0.00000000D+00 -0.00000000D+00 -0.00000000D+00  0.38034081D-05
 -0.67758576D-03 -0.00000000D+00
MO   17     MO 0.0        OCC NO =    0.0000000  ORB. ENERGY =    0.073345
 -0.64650655D-02 -0.11969147D-01 -0.19383882D-01 -0.24858047D-01 -0.22550452D-01
 -0.10956450D-02 -0.10999193D-01 -0.29076599D-01  0.35778978D-04 -0.33907263D-01
 -0.28854083D-01 -0.22710668D-01  0.00000000D+00  0.00000000D+00  0.00000000D+00
  0.00000000D+00  0.00000000D+00  0.00000000D+00  0.19376718D-02 -0.42894205D-03
  0.00000000D+00  0.00000000D+00  0.83389852D-01 -0.17616314D-01 -0.00000000D+00
  0.00000000D+00 -0.83985005D+00 -0.78156370D-01  0.00000000D+00 -0.00000000D+00
  0.29812713D-03 -0.47564024D-02 -0.47564024D-02  0.00000000D+00 -0.00000000D+00
 -0.00000000D+00  0.64650655D-02  0.11969147D-01  0.19383882D-01  0.24858047D-01
  0.22550452D-01  0.10956450D-02  0.10999193D-01  0.29076599D-01 -0.35778978D-04
 -0.33907263D-01 -0.28854083D-01 -0.22710668D-01 -0.00000000D+00 -0.00000000D+00
 -0.00000000D+00 -0.00000000D+00 -0.00000000D+00 -0.00000000D+00 -0.19376718D-02
 -0.42894205D-03 -0.00000000D+00 -0.00000000D+00 -0.83389852D-01 -0.17616314D-01
 -0.00000000D+00 -0.00000000D+00  0.83985005D+00 -0.78156370D-01  0.00000000D+00
  0.00000000D+00 -0.29812713D-03  0.47564024D-02  0.47564024D-02  0.00000000D+00
 -0.00000000D+00  0.00000000D+00
MO   18     MO 0.0        OCC NO =    0.0000000  ORB. ENERGY =    0.114761
  0.19792332D-01  0.36642681D-01  0.59342357D-01  0.76101119D-01  0.69036586D-01
  0.33542382D-02  0.29737997D-01  0.78613020D-01 -0.96733926D-04 -0.10923809D+00
 -0.92958404D-01 -0.73166334D-01 -0.00000000D+00 -0.00000000D+00 -0.00000000D+00
 -0.00000000D+00 -0.00000000D+00 -0.00000000D+00 -0.32362000D-01 -0.21743886D-01
 -0.00000000D+00 -0.00000000D+00 -0.24549173D+00 -0.93822007D-01 -0.00000000D+00
 -0.00000000D+00  0.26341125D+00  0.31144543D-01 -0.00000000D+00  0.00000000D+00
  0.10422203D-01 -0.21256841D-03 -0.21256841D-03 -0.00000000D+00  0.00000000D+00
  0.00000000D+00 -0.19792332D-01 -0.36642681D-01 -0.59342357D-01 -0.76101119D-01
 -0.69036586D-01 -0.33542382D-02 -0.29737997D-01 -0.78613020D-01  0.96733926D-04
 -0.10923809D+00 -0.92958404D-01 -0.73166334D-01  0.00000000D+00  0.00000000D+00
  0.00000000D+00  0.00000000D+00  0.00000000D+00  0.00000000D+00  0.32362000D-01
 -0.21743886D-01  0.00000000D+00  0.00000000D+00  0.24549173D+00 -0.93822007D-01
 -0.00000000D+00  0.00000000D+00 -0.26341125D+00  0.31144543D-01 -0.00000000D+00
 -0.00000000D+00 -0.10422203D-01  0.21256841D-03  0.21256841D-03 -0.00000000D+00
 -0.00000000D+00 -0.00000000D+00
MO   19     MO 0.0        OCC NO =    0.0000000  ORB. ENERGY =    0.202992
 -0.21139436D-02 -0.39136651D-02 -0.63381310D-02 -0.81280704D-02 -0.73735346D-02
 -0.35825340D-03  0.17134043D-03  0.45294203D-03 -0.55734865D-06  0.80439923D-01
  0.68452009D-01  0.53877673D-01  0.00000000D+00  0.00000000D+00  0.00000000D+00
 -0.00000000D+00 -0.00000000D+00 -0.00000000D+00  0.67130573D-01  0.10033122D+00
  0.00000000D+00 -0.00000000D+00 -0.29941917D-01 -0.57916176D-01 -0.00000000D+00
  0.00000000D+00 -0.87922659D-03  0.12244354D-01  0.00000000D+00 -0.00000000D+00
  0.15496097D-01  0.19243648D-02  0.19243648D-02  0.00000000D+00  0.00000000D+00
 -0.00000000D+00 -0.21139436D-02 -0.39136651D-02 -0.63381310D-02 -0.81280704D-02
 -0.73735346D-02 -0.35825340D-03  0.17134043D-03  0.45294203D-03 -0.55734865D-06
 -0.80439923D-01 -0.68452009D-01 -0.53877673D-01 -0.00000000D+00 -0.00000000D+00
 -0.00000000D+00 -0.00000000D+00 -0.00000000D+00 -0.00000000D+00  0.67130573D-01
 -0.10033122D+00 -0.00000000D+00  0.00000000D+00 -0.29941917D-01  0.57916176D-01
  0.00000000D+00 -0.00000000D+00 -0.87922659D-03 -0.12244354D-01 -0.00000000D+00
  0.00000000D+00  0.15496097D-01  0.19243648D-02  0.19243648D-02 -0.00000000D+00
 -0.00000000D+00 -0.00000000D+00
MO   20     MO 0.0        OCC NO =    0.0000000  ORB. ENERGY =    0.222210
  0.00000000D+00  0.00000000D+00  0.00000000D+00  0.00000000D+00  0.00000000D+00
  0.00000000D+00  0.00000000D+00  0.00000000D+00 -0.00000000D+00  0.00000000D+00
  0.00000000D+00  0.00000000D+00  0.11605726D+00  0.98761311D-01  0.77733725D-01
 -0.16902948D-01 -0.14383912D-01 -0.11321387D-01 -0.00000000D+00  0.00000000D+00
  0.11851948D+00 -0.17261556D-01  0.00000000D+00 -0.00000000D+00 -0.47778702D-01
  0.69586432D-02  0.00000000D+00  0.00000000D+00  0.59947417D-02 -0.87309339D-03
 -0.00000000D+00 -0.00000000D+00 -0.00000000D+00  0.12261288D-01 -0.17857731D-02
 -0.00000000D+00  0.00000000D+00  0.00000000D+00  0.00000000D+00  0.00000000D+00
  0.00000000D+00  0.00000000D+00  0.00000000D+00  0.00000000D+00 -0.00000000D+00
 -0.00000000D+00 -0.00000000D+00 -0.00000000D+00  0.11605726D+00  0.98761311D-01
  0.77733725D-01 -0.16902948D-01 -0.14383912D-01 -0.11321387D-01 -0.00000000D+00
 -0.00000000D+00  0.11851948D+00 -0.17261556D-01  0.00000000D+00  0.00000000D+00
 -0.47778702D-01  0.69586432D-02 -0.00000000D+00  0.00000000D+00  0.59947417D-02
 -0.87309339D-03 -0.00000000D+00 -0.00000000D+00 -0.00000000D+00 -0.12261288D-01
  0.17857731D-02  0.00000000D+00
MO   21     MO 0.0        OCC NO =    0.0000000  ORB. ENERGY =    0.222210
 -0.00000000D+00 -0.00000000D+00 -0.00000000D+00 -0.00000000D+00 -0.00000000D+00
 -0.00000000D+00 -0.00000000D+00 -0.00000000D+00  0.00000000D+00 -0.00000000D+00
 -0.00000000D+00 -0.00000000D+00 -0.16902948D-01 -0.14383912D-01 -0.11321387D-01
 -0.11605726D+00 -0.98761311D-01 -0.77733725D-01  0.00000000D+00 -0.00000000D+00
 -0.17261556D-01 -0.11851948D+00 -0.00000000D+00  0.00000000D+00  0.69586432D-02
  0.47778702D-01  0.00000000D+00  0.00000000D+00 -0.87309339D-03 -0.59947417D-02
  0.00000000D+00  0.00000000D+00  0.00000000D+00 -0.17857731D-02 -0.12261288D-01
 -0.00000000D+00 -0.00000000D+00 -0.00000000D+00 -0.00000000D+00 -0.00000000D+00
 -0.00000000D+00 -0.00000000D+00 -0.00000000D+00 -0.00000000D+00  0.00000000D+00
  0.00000000D+00  0.00000000D+00  0.00000000D+00 -0.16902948D-01 -0.14383912D-01
 -0.11321387D-01 -0.11605726D+00 -0.98761311D-01 -0.77733725D-01  0.00000000D+00
  0.00000000D+00 -0.17261556D-01 -0.11851948D+00 -0.00000000D+00 -0.00000000D+00
  0.69586432D-02  0.47778702D-01 -0.00000000D+00  0.00000000D+00 -0.87309339D-03
 -0.59947417D-02  0.00000000D+00  0.00000000D+00  0.00000000D+00  0.17857731D-02
  0.12261288D-01 -0.00000000D+00
MO   22     MO 0.0        OCC NO =    0.0000000  ORB. ENERGY =    0.228079
 -0.31106569D-01 -0.57589377D-01 -0.93265266D-01 -0.11960413D+00 -0.10850118D+00
 -0.52716800D-02 -0.32968652D-01 -0.87153326D-01  0.10724284D-03 -0.43051773D-01
 -0.36635793D-01 -0.28835550D-01  0.00000000D+00  0.00000000D+00  0.00000000D+00
  0.00000000D+00  0.00000000D+00  0.00000000D+00  0.24262163D+00 -0.28905540D-01
  0.00000000D+00  0.00000000D+00 -0.18871881D+00  0.11723932D-01 -0.00000000D+00
 -0.00000000D+00  0.35254520D-01  0.92330856D-03  0.00000000D+00  0.00000000D+00
  0.27434218D-01  0.18536251D-01  0.18536251D-01  0.00000000D+00  0.00000000D+00
 -0.00000000D+00 -0.31106569D-01 -0.57589377D-01 -0.93265266D-01 -0.11960413D+00
 -0.10850118D+00 -0.52716800D-02 -0.32968652D-01 -0.87153326D-01  0.10724284D-03
  0.43051773D-01  0.36635793D-01  0.28835550D-01  0.00000000D+00  0.00000000D+00
  0.00000000D+00 -0.00000000D+00 -0.00000000D+00 -0.00000000D+00  0.24262163D+00
  0.28905540D-01  0.00000000D+00 -0.00000000D+00 -0.18871881D+00 -0.11723932D-01
 -0.00000000D+00  0.00000000D+00  0.35254520D-01 -0.92330856D-03 -0.00000000D+00
 -0.00000000D+00  0.27434218D-01  0.18536251D-01  0.18536251D-01 -0.00000000D+00
 -0.00000000D+00 -0.00000000D+00
MO   23     MO 0.0        OCC NO =    0.0000000  ORB. ENERGY =    0.241395
  0.00000000D+00  0.00000000D+00  0.00000000D+00  0.00000000D+00  0.00000000D+00
  0.00000000D+00  0.00000000D+00  0.00000000D+00 -0.00000000D+00 -0.00000000D+00
 -0.00000000D+00 -0.00000000D+00  0.12503768D+00  0.10640338D+00  0.83748700D-01
  0.42867925D-01  0.36479344D-01  0.28712410D-01 -0.00000000D+00 -0.00000000D+00
  0.11540609D+00  0.39565834D-01  0.00000000D+00  0.00000000D+00 -0.68848089D-01
 -0.23603884D-01  0.00000000D+00  0.00000000D+00  0.13389185D-01  0.45903493D-02