[Molden Format]
[Atoms] AU
E+       1       4     0.00000000     0.00000000     0.00000000
E+       2       4     4.54000000     0.00000000     0.00000000
[GTO]
  1 0
s  1 1.00
   1.0000000000E-04   1.0000000000E+00
s  1 1.00
   3.0000000000E-04   1.0000000000E+00
s  1 1.00
   9.0000000000E-04   1.0000000000E+00
s  1 1.00
   2.7000000000E-03   1.0000000000E+00
s  1 1.00
   8.1000000000E-03   1.0000000000E+00
s  1 1.00
   2.4300000000E-02   1.0000000000E+00
s  1 1.00
   7.2900000000E-02   1.0000000000E+00
s  1 1.00
   2.1870000000E-01   1.0000000000E+00
s  1 1.00
   6.5610000000E-01   1.0000000000E+00
s  1 1.00
   1.9683000000E+00   1.0000000000E+00
p  1 1.00
   1.0000000000E-04   1.0000000000E+00
p  1 1.00
   3.0000000000E-04   1.0000000000E+00
p  1 1.00
   9.0000000000E-04   1.0000000000E+00
p  1 1.00
   2.7000000000E-03   1.0000000000E+00
d  1 1.00
   1.0000000000E-04   1.0000000000E+00
d  1 1.00
   3.0000000000E-04   1.0000000000E+00
 
  2 0
s  1 1.00
   1.0000000000E-04   1.0000000000E+00
s  1 1.00
   3.0000000000E-04   1.0000000000E+00
s  1 1.00
   9.0000000000E-04   1.0000000000E+00
s  1 1.00
   2.7000000000E-03   1.0000000000E+00
s  1 1.00
   8.1000000000E-03   1.0000000000E+00
s  1 1.00
   2.4300000000E-02   1.0000000000E+00
s  1 1.00
   7.2900000000E-02   1.0000000000E+00
s  1 1.00
   2.1870000000E-01   1.0000000000E+00
s  1 1.00
   6.5610000000E-01   1.0000000000E+00
s  1 1.00
   1.9683000000E+00   1.0000000000E+00
p  1 1.00
   1.0000000000E-04   1.0000000000E+00
p  1 1.00
   3.0000000000E-04   1.0000000000E+00
p  1 1.00
   9.0000000000E-04   1.0000000000E+00
p  1 1.00
   2.7000000000E-03   1.0000000000E+00
d  1 1.00
   1.0000000000E-04   1.0000000000E+00
d  1 1.00
   3.0000000000E-04   1.0000000000E+00
 
 
[MO]
Ene=    -8.25456E-02
Spin= Alpha
Occup=   1.0000000000
   1      -0.01200447
   2      -0.00299759
   3       0.00967113
   4      -0.03436712
   5       0.10078148
   6       0.22805669
   7       0.40708330
   8      -0.17759329
   9      -0.04360966
  10       0.00291677
  11      -0.00057256
  12       0.00000000
  13      -0.00000000
  14      -0.00070702
  15       0.00000000
  16      -0.00000000
  17       0.09089228
  18       0.00000000
  19       0.00000000
  20      -0.07325349
  21       0.00000000
  22      -0.00000000
  23       0.00050286
  24       0.00242005
  25       0.00242005
  26      -0.00000000
  27       0.00000000
  28       0.00000000
  29       0.00814433
  30       0.00279819
  31       0.00279819
  32       0.00000000
  33       0.00000000
  34      -0.00000000
  35      -0.01200446
  36      -0.00299758
  37       0.00961439
  38      -0.03508441
  39       0.10082229
  40       0.22833783
  41       0.40708504
  42      -0.17760419
  43      -0.04361374
  44       0.00291696
  45       0.00057291
  46      -0.00000000
  47       0.00000000
  48       0.00070712
  49      -0.00000000
  50      -0.00000000
  51      -0.09088924
  52      -0.00000000
  53      -0.00000000
  54       0.07333860
  55      -0.00000000
  56       0.00000000
  57       0.00050097
  58       0.00241654
  59       0.00241654
  60       0.00000000
  61      -0.00000000
  62      -0.00000000
  63       0.00813872
  64       0.00279478
  65       0.00279478
  66      -0.00000000
  67      -0.00000000
  68       0.00000000
Ene=    -4.85647E-02
Spin= Alpha
Occup=   0.0000000000
   1      -0.00007433
   2      -0.00011056
   3      -0.45503547
   4      -5.77385364
   5       0.50559435
   6       1.21333951
   7       0.13106177
   8      -0.08101430
   9      -0.02228191
  10       0.00133796
  11       0.00257798
  12      -0.00000000
  13       0.00000000
  14       0.00136578
  15      -0.00000000
  16       0.00000000
  17      -0.03417857
  18       0.00000000
  19      -0.00000000
  20      -0.67527972
  21      -0.00000000
  22       0.00000000
  23       0.02904097
  24       0.01541402
  25       0.01541402
  26      -0.00000000
  27       0.00000000
  28       0.00000000
  29       0.03123786
  30       0.04944553
  31       0.04944553
  32      -0.00000000
  33       0.00000000
  34      -0.00000000
  35       0.00005967
  36       0.00008537
  37       0.45507055
  38       5.77385810
  39      -0.50567361
  40      -1.21328715
  41      -0.13090623
  42       0.08095741
  43       0.02227082
  44      -0.00133731
  45       0.00257878
  46       0.00000000
  47      -0.00000000
  48       0.00136811
  49       0.00000000
  50      -0.00000000
  51      -0.03403377
  52      -0.00000000
  53       0.00000000
  54      -0.67540671
  55       0.00000000
  56      -0.00000000
  57      -0.02903702
  58      -0.01541294
  59      -0.01541294
  60      -0.00000000
  61       0.00000000
  62      -0.00000000
  63      -0.03123488
  64      -0.04943407
  65      -0.04943407
  66      -0.00000000
  67       0.00000000
  68       0.00000000
Ene=    -2.63691E-03
Spin= Alpha
Occup=   0.0000000000
   1      -0.30046847
   2      -0.28999727
   3       0.31728608
   4      -0.42928455
   5      -0.34080891
   6       0.26306500
   7       0.19606550
   8      -0.07063533
   9      -0.01634824
  10       0.00091827
  11      -0.01581772
  12      -0.00000000
  13      -0.00000000
  14      -0.03056437
  15       0.00000000
  16      -0.00000000
  17      -0.83871408
  18      -0.00000000
  19       0.00000000
  20       0.89102290
  21       0.00000000
  22       0.00000000
  23       0.05909703
  24       0.03715396
  25       0.03715396
  26       0.00000000
  27       0.00000000
  28       0.00000000
  29       0.09966524
  30       0.16012375
  31       0.16012375
  32       0.00000000
  33      -0.00000000
  34      -0.00000000
  35      -0.30046778
  36      -0.28999676
  37       0.31753016
  38      -0.42608969
  39      -0.34161034
  40       0.26350430
  41       0.19616232
  42      -0.07067613
  43      -0.01635205
  44       0.00091804
  45       0.01584475
  46       0.00000000
  47       0.00000000
  48       0.03056936
  49      -0.00000000
  50       0.00000000
  51       0.83865169
  52       0.00000000
  53      -0.00000000
  54      -0.89140623
  55       0.00000000
  56      -0.00000000
  57       0.05885499
  58       0.03692849
  59       0.03692849
  60      -0.00000000
  61      -0.00000000
  62      -0.00000000
  63       0.09932508
  64       0.15976326
  65       0.15976326
  66      -0.00000000
  67       0.00000000
  68       0.00000000
Ene=     8.83371E-05
Spin= Alpha
Occup=   0.0000000000
   1       1.20551808
   2      -0.34992253
   3      -0.13094759
   4       0.04926105
   5       0.01122556
   6      -0.01066453
   7      -0.00990865
   8       0.00348769
   9       0.00071367
  10      -0.00003418
  11       0.07240941
  12      -0.00000000
  13       0.00000000
  14      -0.01207048
  15      -0.00000000
  16       0.00000000
  17       0.09393232
  18       0.00000000
  19      -0.00000000
  20      -0.06211238
  21      -0.00000000
  22       0.00000000
  23      -0.45410957
  24      -0.44794729
  25      -0.44794729
  26       0.00000000
  27       0.00000000
  28       0.00000000
  29      -0.21893471
  30      -0.22766900
  31      -0.22766900
  32      -0.00000000
  33       0.00000000
  34       0.00000000
  35       1.20551725
  36      -0.34992015
  37      -0.13094507
  38       0.04908063
  39       0.01127742
  40      -0.01069505
  41      -0.00991464
  42       0.00349027
  43       0.00071396
  44      -0.00003417
  45      -0.07241562
  46      -0.00000000
  47      -0.00000000
  48       0.01214298
  49       0.00000000
  50      -0.00000000
  51      -0.09391578
  52      -0.00000000
  53       0.00000000
  54       0.06213382
  55       0.00000000
  56      -0.00000000
  57      -0.45179833
  58      -0.44564794
  59      -0.44564794
  60      -0.00000000
  61      -0.00000000
  62      -0.00000000
  63      -0.21841354
  64      -0.22714911
  65      -0.22714911
  66       0.00000000
  67      -0.00000000
  68      -0.00000000
Ene=     1.37322E-04
Spin= Alpha
Occup=   0.0000000000
   1       0.00729718
   2      -0.01135593
   3      -0.17353005
   4      -1.09475636
   5      -0.02014657
   6       0.01121469
   7       0.00088995
   8      -0.00050875
   9      -0.00013575
  10       0.00000750
  11      -0.16856403
  12      -0.00000000
  13       0.00000000
  14       0.35239143
  15      -0.00000000
  16       0.00000000
  17       0.04890607
  18       0.00000000
  19       0.00000000
  20      -0.14156282
  21      -0.00000000
  22      -0.00000000
  23     -12.27932971
  24     -12.24652031
  25     -12.24652031
  26       0.00000000
  27       0.00000000
  28       0.00000000
  29      -2.73724212
  30      -2.73130751
  31      -2.73130751
  32      -0.00000000
  33       0.00000000
  34      -0.00000000
  35      -0.00766495
  36       0.01146073
  37       0.17356332
  38       1.09474485
  39       0.02014510
  40      -0.01121288
  41      -0.00088708
  42       0.00050778
  43       0.00013557
  44      -0.00000749
  45      -0.16854330
  46       0.00000000
  47      -0.00000000
  48       0.35238754
  49       0.00000000
  50      -0.00000000
  51       0.04891146
  52       0.00000000
  53      -0.00000000
  54      -0.14157615
  55      -0.00000000
  56       0.00000000
  57      12.27943324
  58      12.24665670
  59      12.24665671
  60      -0.00000000
  61       0.00000000
  62      -0.00000000
  63       2.73730404
  64       2.73136965
  65       2.73136965
  66      -0.00000000
  67       0.00000000
  68       0.00000000
Ene=     2.09233E-04
Spin= Alpha
Occup=   0.0000000000
   1       0.00000000
   2       0.00000000
   3      -0.00000000
   4       0.00000000
   5      -0.00000000
   6       0.00000000
   7       0.00000000
   8      -0.00000000
   9       0.00000000
  10      -0.00000000
  11      -0.00000000
  12       0.64593876
  13      -0.00010409
  14      -0.00000000
  15      -0.12883292
  16       0.00002076
  17      -0.00000000
  18       0.01241006
  19      -0.00000200
  20       0.00000000
  21       0.00762499
  22      -0.00000123
  23       0.00000000
  24      -0.00000000
  25      -0.00000000
  26      -4.13005651
  27       0.00066551
  28       0.00000000
  29       0.00000000
  30       0.00000000
  31       0.00000000
  32       0.70040985
  33      -0.00011286
  34      -0.00000000
  35      -0.00000000
  36      -0.00000000
  37       0.00000000
  38      -0.00000000
  39       0.00000000
  40      -0.00000000
  41      -0.00000000
  42       0.00000000
  43      -0.00000000
  44       0.00000000
  45       0.00000000
  46       0.64593771
  47      -0.00010409
  48       0.00000000
  49      -0.12883274
  50       0.00002076
  51      -0.00000000
  52       0.01235900
  53      -0.00000199
  54       0.00000000
  55       0.00764237
  56      -0.00000123
  57      -0.00000000
  58       0.00000000
  59       0.00000000
  60       4.13000992
  61      -0.00066551
  62      -0.00000000
  63      -0.00000000
  64      -0.00000000
  65      -0.00000000
  66      -0.70040469
  67       0.00011286
  68       0.00000000
Ene=     2.09233E-04
Spin= Alpha
Occup=   0.0000000000
   1      -0.00000000
   2       0.00000000
   3       0.00000000
   4       0.00000000
   5      -0.00000000
   6       0.00000000
   7      -0.00000000
   8       0.00000000
   9      -0.00000000
  10       0.00000000
  11       0.00000000
  12       0.00010409
  13       0.64593876
  14      -0.00000000
  15      -0.00002076
  16      -0.12883292
  17       0.00000000
  18       0.00000200
  19       0.01241006
  20       0.00000000
  21       0.00000123
  22       0.00762499
  23       0.00000000
  24       0.00000000
  25      -0.00000000
  26      -0.00066551
  27      -4.13005651
  28      -0.00000000
  29       0.00000000
  30      -0.00000000
  31       0.00000000
  32       0.00011286
  33       0.70040985
  34       0.00000000
  35       0.00000000
  36      -0.00000000
  37      -0.00000000
  38      -0.00000000
  39       0.00000000
  40      -0.00000000
  41       0.00000000
  42       0.00000000
  43       0.00000000
  44      -0.00000000
  45      -0.00000000
  46       0.00010409
  47       0.64593771
  48       0.00000000
  49      -0.00002076
  50      -0.12883274
  51      -0.00000000
  52       0.00000199
  53       0.01235900
  54       0.00000000
  55       0.00000123
  56       0.00764237
  57      -0.00000000
  58      -0.00000000
  59       0.00000000
  60       0.00066551
  61       4.13000991
  62       0.00000000
  63      -0.00000000
  64       0.00000000
  65      -0.00000000
  66      -0.00011286
  67      -0.70040469
  68      -0.00000000
Ene=     3.26051E-04
Spin= Alpha
Occup=   0.0000000000
   1       0.04717088
   2       0.05657614
   3      -0.07115775
   4      -0.00133181
   5       0.00448530
   6      -0.00124015
   7       0.00035498
   8      -0.00009510
   9       0.00002682
  10      -0.00000451
  11       0.02437179
  12      -0.00000000
  13      -0.00000000
  14      -0.00154538
  15       0.00000000
  16       0.00000000
  17       0.32121494
  18      -0.00000000
  19      -0.00000000
  20      -0.03313664
  21       0.00000000
  22       0.00000000
  23      -0.56361414
  24       0.27683280
  25       0.27683280
  26       0.00000000
  27       0.00000000
  28      -0.00000000
  29       0.09130634
  30      -0.08310204
  31      -0.08310204
  32      -0.00000000
  33      -0.00000000
  34      -0.00000000
  35       0.04717446
  36       0.05657406
  37      -0.07120795
  38      -0.00178749
  39       0.00448667
  40      -0.00124202
  41       0.00035457
  42      -0.00009493
  43       0.00002684
  44      -0.00000451
  45      -0.02422987
  46       0.00000000
  47       0.00000000
  48       0.00148043
  49      -0.00000000
  50      -0.00000000
  51      -0.32122207
  52       0.00000000
  53       0.00000000
  54       0.03319348
  55      -0.00000000
  56      -0.00000000
  57      -0.56480196
  58       0.27378952
  59       0.27378952
  60       0.00000000
  61       0.00000000
  62       0.00000000
  63       0.09078283
  64      -0.08357524
  65      -0.08357524
  66      -0.00000000
  67      -0.00000000
  68      -0.00000000
Ene=     3.26239E-04
Spin= Alpha
Occup=   0.0000000000
   1      -0.00000000
   2      -0.00000000
   3       0.00000000
   4      -0.00000000
   5      -0.00000000
   6       0.00000000
   7      -0.00000000
   8       0.00000000
   9       0.00000000
  10       0.00000000
  11      -0.00000000
  12      -0.01263817
  13      -0.00104022
  14       0.00000000
  15       0.00444097
  16       0.00036553
  17      -0.00000000
  18      -0.38810907
  19      -0.03194439
  20       0.00000000
  21       0.04448350
  22       0.00366134
  23       0.00000000
  24      -0.00000000
  25      -0.00000000
  26       0.55869795
  27       0.04598518
  28       0.00000000
  29      -0.00000000
  30       0.00000000
  31       0.00000000
  32      -0.11703961
  33      -0.00963327
  34      -0.00000000
  35      -0.00000000
  36      -0.00000000
  37       0.00000000
  38       0.00000000
  39      -0.00000000
  40       0.00000000
  41      -0.00000000
  42       0.00000000
  43      -0.00000000
  44       0.00000000
  45       0.00000000
  46       0.01269487
  47       0.00104489
  48       0.00000000
  49      -0.00446596
  50      -0.00036758
  51       0.00000000
  52       0.38811185
  53       0.03194462
  54      -0.00000000
  55      -0.04448395
  56      -0.00366137
  57       0.00000000
  58      -0.00000000
  59       0.00000000
  60       0.55854457
  61       0.04597256
  62      -0.00000000
  63      -0.00000000
  64       0.00000000
  65       0.00000000
  66      -0.11714674
  67      -0.00964209
  68       0.00000000
Ene=     3.26239E-04
Spin= Alpha
Occup=   0.0000000000
   1       0.00000000
   2       0.00000000
   3      -0.00000000
   4      -0.00000000
   5       0.00000000
   6      -0.00000000
   7       0.00000000
   8      -0.00000000
   9       0.00000000
  10      -0.00000000
  11       0.00000000
  12      -0.00104022
  13       0.01263817
  14      -0.00000000
  15       0.00036553
  16      -0.00444097
  17       0.00000000
  18      -0.03194439
  19       0.38810907
  20      -0.00000000
  21       0.00366134
  22      -0.04448350
  23      -0.00000000
  24       0.00000000
  25       0.00000000
  26       0.04598518
  27      -0.55869795
  28       0.00000000
  29       0.00000000
  30      -0.00000000
  31      -0.00000000
  32      -0.00963327
  33       0.11703961
  34      -0.00000000
  35       0.00000000
  36       0.00000000
  37      -0.00000000
  38       0.00000000
  39       0.00000000
  40      -0.00000000
  41       0.00000000
  42      -0.00000000
  43       0.00000000
  44      -0.00000000
  45      -0.00000000
  46       0.00104489
  47      -0.01269487
  48       0.00000000
  49      -0.00036758
  50       0.00446596
  51      -0.00000000
  52       0.03194462
  53      -0.38811185
  54       0.00000000
  55      -0.00366137
  56       0.04448395
  57      -0.00000000
  58       0.00000000
  59      -0.00000000
  60       0.04597256
  61      -0.55854457
  62      -0.00000000
  63       0.00000000
  64      -0.00000000
  65      -0.00000000
  66      -0.00964209
  67       0.11714674
  68       0.00000000
Ene=     3.31095E-04
Spin= Alpha
Occup=   0.0000000000
   1       0.00000000
   2      -0.00000000
   3      -0.00000000
   4      -0.00000000
   5       0.00000000
   6       0.00000000
   7       0.00000000
   8      -0.00000000
   9      -0.00000000
  10       0.00000000
  11       0.00000000
  12      -0.00000000
  13      -0.00000000
  14      -0.00000000
  15      -0.00000000
  16      -0.00000000
  17       0.00000000
  18      -0.00000000
  19      -0.00000000
  20      -0.00000000
  21       0.00000000
  22       0.00000000
  23       0.00000000
  24       0.47590539
  25      -0.47590539
  26       0.00000000
  27       0.00000000
  28      -0.00000373
  29       0.00000000
  30      -0.07711367
  31       0.07711367
  32       0.00000000
  33       0.00000000
  34       0.00000060
  35       0.00000000
  36      -0.00000000
  37      -0.00000000
  38       0.00000000
  39      -0.00000000
  40       0.00000000
  41       0.00000000
  42      -0.00000000
  43      -0.00000000
  44       0.00000000
  45       0.00000000
  46       0.00000000
  47       0.00000000
  48      -0.00000000
  49      -0.00000000
  50      -0.00000000
  51      -0.00000000
  52       0.00000000
  53       0.00000000
  54      -0.00000000
  55      -0.00000000
  56      -0.00000000
  57      -0.00000000
  58       0.47477861
  59      -0.47477861
  60      -0.00000000
  61      -0.00000000
  62      -0.00000372
  63      -0.00000000
  64      -0.07707971
  65       0.07707971
  66      -0.00000000
  67      -0.00000000
  68       0.00000060
Ene=     3.31095E-04
Spin= Alpha
Occup=   0.0000000000
   1      -0.00000000
   2       0.00000000
   3       0.00000000
   4       0.00000000
   5       0.00000000
   6       0.00000000
   7       0.00000000
   8      -0.00000000
   9      -0.00000000
  10       0.00000000
  11       0.00000000
  12       0.00000000
  13      -0.00000000
  14      -0.00000000
  15       0.00000000
  16      -0.00000000
  17       0.00000000
  18       0.00000000
  19      -0.00000000
  20       0.00000000
  21      -0.00000000
  22       0.00000000
  23       0.00000000
  24      -0.00000323
  25       0.00000323
  26      -0.00000000
  27       0.00000000
  28      -0.54952819
  29       0.00000000
  30       0.00000052
  31      -0.00000052
  32      -0.00000000
  33       0.00000000
  34       0.08904315
  35      -0.00000000
  36       0.00000000
  37      -0.00000000
  38      -0.00000000
  39       0.00000000
  40      -0.00000000
  41      -0.00000000
  42       0.00000000
  43       0.00000000
  44      -0.00000000
  45       0.00000000
  46      -0.00000000
  47       0.00000000
  48      -0.00000000
  49       0.00000000
  50      -0.00000000
  51      -0.00000000
  52      -0.00000000
  53       0.00000000
  54       0.00000000
  55       0.00000000
  56      -0.00000000
  57      -0.00000000
  58      -0.00000323
  59       0.00000323
  60       0.00000000
  61      -0.00000000
  62      -0.54822710
  63      -0.00000000
  64       0.00000052
  65      -0.00000052
  66       0.00000000
  67      -0.00000000
  68       0.08900395
Ene=     3.85303E-04
Spin= Alpha
Occup=   0.0000000000
   1       3.76625639
   2      -1.09610976
   3      -0.30368464
   4      -0.00304347
   5      -0.04742102
   6       0.03114680
   7       0.01902365
   8      -0.00689060
   9      -0.00174286
  10       0.00010656
  11       0.20206582
  12      -0.00000000
  13       0.00000000
  14      -0.05054058
  15      -0.00000000
  16       0.00000000
  17      -0.00086618
  18      -0.00000000
  19      -0.00000000
  20       0.08313462
  21       0.00000000
  22       0.00000000
  23      -0.81457598
  24      -0.81927680
  25      -0.81927680
  26       0.00000000
  27       0.00000000
  28      -0.00000000
  29      -0.50473960
  30      -0.50494503
  31      -0.50494503
  32       0.00000000
  33       0.00000000
  34      -0.00000000
  35       3.76623554
  36      -1.09609801
  37      -0.30338009
  38      -0.00031951
  39      -0.04753612
  40       0.03122441
  41       0.01903935
  42      -0.00689731
  43      -0.00174361
  44       0.00010653
  45      -0.20283216
  46       0.00000000
  47      -0.00000000
  48       0.05090952
  49       0.00000000
  50      -0.00000000
  51       0.00089785
  52       0.00000000
  53       0.00000000
  54      -0.08347945
  55      -0.00000000
  56      -0.00000000
  57      -0.80297365
  58      -0.80753718
  59      -0.80753718
  60      -0.00000000
  61      -0.00000000
  62       0.00000000
  63      -0.50165450
  64      -0.50184787
  65      -0.50184787
  66      -0.00000000
  67      -0.00000000
  68       0.00000000
Ene=     4.28690E-04
Spin= Alpha
Occup=   0.0000000000
   1      -0.03712395
   2       0.02233173
   3       0.43895571
   4       3.58806408
   5      -0.01794506
   6       0.02696440
   7       0.00503434
   8      -0.00221465
   9      -0.00030623
  10       0.00000037
  11       1.45022340
  12       0.00000000
  13      -0.00000000
  14      -0.70647592
  15       0.00000000
  16      -0.00000000
  17      -0.08811152
  18      -0.00000000
  19      -0.00000000
  20       0.45560972
  21      -0.00000000
  22       0.00000000
  23      18.17848730
  24      21.87355055
  25      21.87355117
  26      -0.00000000
  27      -0.00000000
  28      -0.00000000
  29       5.68852741
  30       5.43647848
  31       5.43647843
  32       0.00000000
  33      -0.00000000
  34       0.00000000
  35       0.03955281
  36      -0.02306535
  37      -0.43914832
  38      -3.58806274
  39       0.01791513
  40      -0.02694508
  41      -0.00501988
  42       0.00220955
  43       0.00030501
  44      -0.00000030
  45       1.45009557
  46      -0.00000000
  47       0.00000000
  48      -0.70644315
  49      -0.00000000
  50       0.00000000
  51      -0.08809260
  52      -0.00000000
  53       0.00000000
  54       0.45555035
  55       0.00000000
  56      -0.00000000
  57     -18.17893934
  58     -21.87408656
  59     -21.87408718
  60       0.00000000
  61       0.00000000
  62       0.00000000
  63      -5.68888208
  64      -5.43679404
  65      -5.43679399
  66      -0.00000000
  67      -0.00000000
  68      -0.00000000
Ene=     4.31972E-04
Spin= Alpha
Occup=   0.0000000000
   1       0.00424923
   2       0.00093409
   3      -0.01134905
   4      -0.61992556
   5       0.00121958
   6       0.00321381
   7       0.00081249
   8      -0.00033716
   9      -0.00003563
  10      -0.00000119
  11      -0.35298575
  12      -0.00000000
  13       0.00000000
  14      -0.02308163
  15      -0.00000000
  16       0.00000000
  17      -0.01469959
  18      -0.00000000
  19       0.00000000
  20      -0.07127700
  21       0.00000000
  22      -0.00000000
  23      13.20538076
  24     -12.87600891
  25     -12.87601159
  26      -0.00000000
  27      -0.00000000
  28      -0.00000000
  29      -0.06618517
  30       2.02459777
  31       2.02459798
  32       0.00000000
  33       0.00000000
  34       0.00000000
  35      -0.00391936
  36      -0.00102766
  37       0.01131693
  38       0.61992567
  39      -0.00122318
  40      -0.00321136
  41      -0.00081051
  42       0.00033647
  43       0.00003547
  44       0.00000120
  45      -0.35300472
  46       0.00000000
  47      -0.00000000
  48      -0.02307716
  49       0.00000000
  50      -0.00000000
  51      -0.01472541
  52      -0.00000000
  53      -0.00000000
  54      -0.07128202
  55      -0.00000000
  56       0.00000000
  57     -13.20548309
  58      12.87595747
  59      12.87596014
  60       0.00000000
  61       0.00000000
  62       0.00000000
  63       0.06614465
  64      -2.02464711
  65      -2.02464732
  66      -0.00000000
  67      -0.00000000
  68      -0.00000000
Ene=     4.32337E-04
Spin= Alpha
Occup=   0.0000000000
   1       0.00000000
   2       0.00000000
   3      -0.00000000
   4      -0.00000000
   5       0.00000000
   6      -0.00000000
   7      -0.00000000
   8       0.00000000
   9       0.00000000
  10       0.00000000
  11       0.00000000
  12       0.00000000
  13      -0.00000000
  14       0.00000000
  15      -0.00000000
  16       0.00000000
  17       0.00000000
  18       0.00000000
  19       0.00000000
  20      -0.00000000
  21       0.00000000
  22      -0.00000000
  23      -0.00000000
  24      -0.00002236
  25       0.00002236
  26       0.00000000
  27      -0.00000000
  28     -23.56156785
  29      -0.00000000
  30       0.00000178
  31      -0.00000179
  32      -0.00000000
  33       0.00000000
  34       1.88076997
  35      -0.00000000
  36      -0.00000000
  37       0.00000000
  38       0.00000000
  39      -0.00000000
  40       0.00000000
  41       0.00000000
  42      -0.00000000
  43      -0.00000000
  44      -0.00000000
  45       0.00000000
  46      -0.00000000
  47       0.00000000
  48       0.00000000
  49       0.00000000
  50      -0.00000000
  51       0.00000000
  52       0.00000000
  53      -0.00000000
  54      -0.00000000
  55       0.00000000
  56       0.00000000
  57       0.00000000
  58       0.00002236
  59      -0.00002236
  60      -0.00000000
  61       0.00000000
  62      23.56159948
  63       0.00000000
  64      -0.00000178
  65       0.00000179
  66       0.00000000
  67      -0.00000000
  68      -1.88077543
Ene=     4.32337E-04
Spin= Alpha
Occup=   0.0000000000
   1      -0.00000000
   2       0.00000000
   3       0.00000001
   4       0.00000009
   5      -0.00000000
   6       0.00000000
   7       0.00000000
   8      -0.00000000
   9      -0.00000000
  10       0.00000000
  11       0.00000004
  12       0.00000000
  13      -0.00000000
  14      -0.00000001
  15      -0.00000000
  16      -0.00000000
  17      -0.00000000
  18      -0.00000000
  19      -0.00000000
  20       0.00000001
  21       0.00000000
  22      -0.00000000
  23      -0.00000059
  24      20.40491454
  25     -20.40491219
  26       0.00000000
  27      -0.00000000
  28      -0.00002582
  29       0.00000009
  30      -1.62879053
  31       1.62879043
  32      -0.00000000
  33       0.00000000
  34       0.00000206
  35       0.00000000
  36      -0.00000000
  37      -0.00000001
  38      -0.00000009
  39       0.00000000
  40      -0.00000000
  41      -0.00000000
  42       0.00000000
  43       0.00000000
  44      -0.00000000
  45       0.00000004
  46      -0.00000000
  47       0.00000000
  48      -0.00000001
  49       0.00000000
  50       0.00000000
  51      -0.00000000
  52       0.00000000
  53      -0.00000000
  54       0.00000001
  55      -0.00000000
  56       0.00000000
  57       0.00000059
  58     -20.40494193
  59      20.40493958
  60      -0.00000000
  61       0.00000000
  62       0.00002582
  63      -0.00000009
  64       1.62879525
  65      -1.62879515
  66       0.00000000
  67      -0.00000000
  68      -0.00000206
Ene=     4.44491E-04
Spin= Alpha
Occup=   0.0000000000
   1      -0.00000000
   2      -0.00000000
   3       0.00000000
   4       0.00000000
   5      -0.00000000
   6       0.00000000
   7       0.00000000
   8      -0.00000000
   9      -0.00000000
  10      -0.00000000
  11       0.00000000
  12      -0.17155846
  13       0.00011104
  14      -0.00000000
  15      -0.09364270
  16       0.00006061
  17      -0.00000000
  18       0.04099639
  19      -0.00002654
  20       0.00000000
  21       0.00156829
  22      -0.00000102
  23       0.00000000
  24      -0.00000000
  25       0.00000000
  26      16.42223650
  27      -0.01062957
  28       0.00000000
  29       0.00000000
  30       0.00000000
  31       0.00000000
  32      -1.05438798
  33       0.00068247
  34      -0.00000000
  35      -0.00000000
  36       0.00000000
  37      -0.00000000
  38      -0.00000000
  39       0.00000000
  40      -0.00000000
  41      -0.00000000
  42       0.00000000
  43       0.00000000
  44      -0.00000000
  45       0.00000000
  46      -0.17155881
  47       0.00011104
  48      -0.00000000
  49      -0.09364276
  50       0.00006061
  51      -0.00000000
  52       0.04096633
  53      -0.00002652
  54       0.00000000
  55       0.00158060
  56      -0.00000102
  57      -0.00000000
  58       0.00000000
  59      -0.00000000
  60     -16.42225179
  61       0.01062958
  62      -0.00000000
  63      -0.00000000
  64      -0.00000000
  65      -0.00000000
  66       1.05438676
  67      -0.00068247
  68       0.00000000
Ene=     4.44491E-04
Spin= Alpha
Occup=   0.0000000000
   1       0.00000000
   2       0.00000000
   3       0.00000000
   4       0.00000000
   5      -0.00000000
   6      -0.00000000
   7      -0.00000000
   8       0.00000000
   9       0.00000000
  10       0.00000000
  11       0.00000000
  12       0.00011104