[Molden Format]
[Title]
 Molden2AIM, Version 3.1.0 (02/25/2015)           Time: Mon Dec  2 17:24:14 2024

[Atoms] AU
E+       1       4     0.00000000     0.00000000     0.00000000
E+       2       4     4.54000000     0.00000000     0.00000000
[GTO]
    1 0
 S   1 1.0
    0.1000000000D-03      0.1000000000D+01
 S   1 1.0
    0.3000000000D-03      0.1000000000D+01
 S   1 1.0
    0.9000000000D-03      0.1000000000D+01
 S   1 1.0
    0.2700000000D-02      0.1000000000D+01
 S   1 1.0
    0.8100000000D-02      0.1000000000D+01
 S   1 1.0
    0.2430000000D-01      0.1000000000D+01
 S   1 1.0
    0.7290000000D-01      0.1000000000D+01
 S   1 1.0
    0.2187000000D+00      0.1000000000D+01
 S   1 1.0
    0.6561000000D+00      0.1000000000D+01
 S   1 1.0
    0.1968300000D+01      0.1000000000D+01
 P   1 1.0
    0.1000000000D-03      0.1000000000D+01
 P   1 1.0
    0.3000000000D-03      0.1000000000D+01
 P   1 1.0
    0.9000000000D-03      0.1000000000D+01
 P   1 1.0
    0.2700000000D-02      0.1000000000D+01
 D   1 1.0
    0.1000000000D-03      0.1000000000D+01
 D   1 1.0
    0.3000000000D-03      0.1000000000D+01

    2 0
 S   1 1.0
    0.1000000000D-03      0.1000000000D+01
 S   1 1.0
    0.3000000000D-03      0.1000000000D+01
 S   1 1.0
    0.9000000000D-03      0.1000000000D+01
 S   1 1.0
    0.2700000000D-02      0.1000000000D+01
 S   1 1.0
    0.8100000000D-02      0.1000000000D+01
 S   1 1.0
    0.2430000000D-01      0.1000000000D+01
 S   1 1.0
    0.7290000000D-01      0.1000000000D+01
 S   1 1.0
    0.2187000000D+00      0.1000000000D+01
 S   1 1.0
    0.6561000000D+00      0.1000000000D+01
 S   1 1.0
    0.1968300000D+01      0.1000000000D+01
 P   1 1.0
    0.1000000000D-03      0.1000000000D+01
 P   1 1.0
    0.3000000000D-03      0.1000000000D+01
 P   1 1.0
    0.9000000000D-03      0.1000000000D+01
 P   1 1.0
    0.2700000000D-02      0.1000000000D+01
 D   1 1.0
    0.1000000000D-03      0.1000000000D+01
 D   1 1.0
    0.3000000000D-03      0.1000000000D+01


[MO]
 Ene=         -0.04684240
 Spin= Alpha
 Occup=        1.00000000
    1       -0.0285387300
    2       -0.0253567200
    3        1.4341169300
    4       17.5327796900
    5        0.0598918500
    6        1.3265589800
    7       -0.2298035700
    8       -0.0954495000
    9        0.0068429600
   10       -0.0039444100
   11        0.0032679900
   12        0.0000000000
   13       -0.0000000000
   14       -0.0014055100
   15        0.0000000000
   16       -0.0000000000
   17        0.0855095700
   18       -0.0000000000
   19        0.0000000000
   20        2.0895645900
   21        0.0000000000
   22       -0.0000000000
   23        0.0182249800
   24        0.0584810700
   25        0.0584810700
   26        0.0000000000
   27       -0.0000000000
   28       -0.0000000000
   29        0.0989592100
   30        0.0448995600
   31        0.0448995600
   32        0.0000000000
   33       -0.0000000000
   34        0.0000000000
   35       -0.0283152600
   36       -0.0251826200
   37       -1.3471276800
   38      -17.6336977300
   39        0.4182711300
   40       -0.6690261000
   41        0.0365347400
   42       -0.0433402500
   43       -0.0001522600
   44       -0.0010132300
   45        0.0061478100
   46       -0.0000000000
   47        0.0000000000
   48        0.0044582400
   49       -0.0000000000
   50        0.0000000000
   51        0.0731280200
   52        0.0000000000
   53       -0.0000000000
   54        2.0902265400
   55       -0.0000000000
   56        0.0000000000
   57       -0.0104589300
   58       -0.0500711800
   59       -0.0500711800
   60        0.0000000000
   61       -0.0000000000
   62        0.0000000000
   63       -0.0715213600
   64       -0.0183686500
   65       -0.0183686500
   66        0.0000000000
   67       -0.0000000000
   68       -0.0000000000
 Ene=         -0.04264580
 Spin= Alpha
 Occup=        0.00000000
    1        0.2005417500
    2        0.2617660400
    3        2.1565289200
    4       32.4627042100
    5       -1.4652177200
    6       -0.5914320400
    7        0.1779085800
    8       -0.0350384000
    9        0.0082056200
   10       -0.0013072800
   11        0.0018540800
   12        0.0000000000
   13       -0.0000000000
   14        0.0224854500
   15        0.0000000000
   16       -0.0000000000
   17        1.1569843300
   18        0.0000000000
   19       -0.0000000000
   20        2.8453871300
   21       -0.0000000000
   22        0.0000000000
   23       -0.1550900200
   24       -0.0636815700
   25       -0.0636815700
   26        0.0000000000
   27       -0.0000000000
   28       -0.0000000000
   29       -0.1575157400
   30       -0.3112852500
   31       -0.3112852500
   32        0.0000000000
   33       -0.0000000000
   34        0.0000000000
   35        0.2000804600
   36        0.2611236900
   37       -2.9451920500
   38      -32.1860361500
   39        2.3754462500
   40        0.2427139400
   41       -0.0939899000
   42       -0.0151784900
   43       -0.0062623500
   44       -0.0002839100
   45       -0.0192638800
   46       -0.0000000000
   47        0.0000000000
   48       -0.0301501800
   49       -0.0000000000
   50        0.0000000000
   51       -0.8053059500
   52       -0.0000000000
   53        0.0000000000
   54        4.7808458500
   55        0.0000000000
   56       -0.0000000000
   57        0.0736947200
   58        0.0193304600
   59        0.0193304600
   60        0.0000000000
   61       -0.0000000000
   62        0.0000000000
   63        0.0203876000
   64        0.0610618400
   65        0.0610618400
   66        0.0000000000
   67       -0.0000000000
   68       -0.0000000000
 Ene=         -0.00467253
 Spin= Alpha
 Occup=        0.00000000
    1       -0.3289522400
    2       -0.2822299200
    3       -6.9905625500
    4      -93.4825207900
    5        0.2404282100
    6       -0.7354260300
    7        0.1455879600
    8       -0.0427944600
    9        0.0068663100
   10       -0.0014606600
   11       -0.1520062100
   12       -0.0000000000
   13        0.0000000000
   14       -0.0732651600
   15       -0.0000000000
   16        0.0000000000
   17       -0.4900177800
   18       -0.0000000000
   19        0.0000000000
   20       -9.8716666000
   21        0.0000000000
   22       -0.0000000000
   23       -1.0599194100
   24       -1.0968818600
   25       -1.0968818600
   26       -0.0000000000
   27       -0.0000000000
   28        0.0000000000
   29       -1.6890144500
   30       -1.6350034100
   31       -1.6350034100
   32       -0.0000000000
   33        0.0000000000
   34        0.0000000000
   35       -0.3357453300
   36       -0.2882204200
   37        7.7711079100
   38       92.3144331000
   39        0.0057653600
   40        1.0619089300
   41       -0.2526319900
   42        0.0122428400
   43       -0.0152346900
   44        0.0010599000
   45       -0.1176797200
   46        0.0000000000
   47       -0.0000000000
   48       -0.0093111900
   49        0.0000000000
   50       -0.0000000000
   51       -0.1753714600
   52        0.0000000000
   53       -0.0000000000
   54      -13.0651866400
   55       -0.0000000000
   56        0.0000000000
   57        1.1697891600
   58        1.1881605300
   59        1.1881605300
   60       -0.0000000000
   61        0.0000000000
   62       -0.0000000000
   63        1.9543104200
   64        1.9593846100
   65        1.9593846100
   66       -0.0000000000
   67       -0.0000000000
   68       -0.0000000000
 Ene=         -0.00262130
 Spin= Alpha
 Occup=        0.00000000
    1        0.0000000000
    2        0.0000000000
    3        0.0000000000
    4        0.0000000100
    5       -0.0000000000
    6        0.0000000000
    7       -0.0000000000
    8        0.0000000000
    9       -0.0000000000
   10        0.0000000000
   11        0.0000000000
   12        0.0474810000
   13        0.0195227400
   14        0.0000000000
   15       -0.1620092800
   16       -0.0666133000
   17        0.0000000000
   18       -0.3987126300
   19       -0.1639385300
   20        0.0000000000
   21        1.1879260300
   22        0.4884391200
   23        0.0000000000
   24        0.0000000000
   25        0.0000000000
   26        0.6657300600
   27        0.2737279900
   28        0.0000000000
   29        0.0000000000
   30        0.0000000000
   31        0.0000000000
   32       -0.2660792800
   33       -0.1094037200
   34       -0.0000000000
   35        0.0000000000
   36        0.0000000000
   37       -0.0000000000
   38       -0.0000000100
   39        0.0000000000
   40       -0.0000000000
   41        0.0000000000
   42       -0.0000000000
   43        0.0000000000
   44       -0.0000000000
   45        0.0000000000
   46        0.0480295700
   47        0.0197483000
   48        0.0000000000
   49       -0.1642956600
   50       -0.0675533900
   51        0.0000000000
   52        0.7982499100
   53        0.3282161300
   54        0.0000000000
   55       -2.2189856500
   56       -0.9123795300
   57       -0.0000000000
   58       -0.0000000000
   59       -0.0000000000
   60       -0.6379593500
   61       -0.2623095200
   62       -0.0000000000
   63       -0.0000000000
   64       -0.0000000000
   65       -0.0000000000
   66        0.1890556600
   67        0.0777339500
   68        0.0000000000
 Ene=         -0.00262130
 Spin= Alpha
 Occup=        0.00000000
    1        0.0000000000
    2        0.0000000000
    3        0.0000000100
    4        0.0000000800
    5       -0.0000000000
    6        0.0000000000
    7       -0.0000000000
    8        0.0000000000
    9       -0.0000000000
   10        0.0000000000
   11        0.0000000000
   12        0.0195227400
   13       -0.0474810000
   14        0.0000000000
   15       -0.0666133000
   16        0.1620092800
   17        0.0000000000
   18       -0.1639385300
   19        0.3987126300
   20        0.0000000100
   21        0.4884391200
   22       -1.1879260300
   23        0.0000000000
   24        0.0000000000
   25        0.0000000000
   26        0.2737279900
   27       -0.6657300600
   28        0.0000000000
   29        0.0000000000
   30        0.0000000000
   31        0.0000000000
   32       -0.1094037200
   33        0.2660792800
   34       -0.0000000000
   35        0.0000000000
   36        0.0000000000
   37       -0.0000000100
   38       -0.0000000800
   39        0.0000000000
   40       -0.0000000000
   41        0.0000000000
   42       -0.0000000000
   43        0.0000000000
   44       -0.0000000000
   45        0.0000000000
   46        0.0197483000
   47       -0.0480295700
   48        0.0000000000
   49       -0.0675533900
   50        0.1642956600
   51        0.0000000000
   52        0.3282161300
   53       -0.7982499100
   54        0.0000000100
   55       -0.9123795300
   56        2.2189856500
   57       -0.0000000000
   58       -0.0000000000
   59       -0.0000000000
   60       -0.2623095200
   61        0.6379593500
   62       -0.0000000000
   63       -0.0000000000
   64       -0.0000000000
   65       -0.0000000000
   66        0.0777339500
   67       -0.1890556600
   68        0.0000000000
 Ene=         -0.00033499
 Spin= Alpha
 Occup=        0.00000000
    1        0.0968442600
    2        0.0358912900
    3        1.6496260600
    4       23.7356585100
    5       -0.0970680800
    6        0.1976858400
    7       -0.0371036000
    8        0.0098600200
    9       -0.0016210500
   10        0.0003316000
   11       -0.1023536500
   12        0.0000000000
   13       -0.0000000000
   14       -0.2418720800
   15        0.0000000000
   16       -0.0000000000
   17        0.6971865900
   18        0.0000000000
   19       -0.0000000000
   20        2.3810452500
   21       -0.0000000000
   22       -0.0000000000
   23        0.3697707400
   24        0.3668096100
   25        0.3668096100
   26        0.0000000000
   27       -0.0000000000
   28       -0.0000000000
   29        0.9028826700
   30       -0.3432498000
   31       -0.3432498000
   32        0.0000000000
   33       -0.0000000000
   34       -0.0000000000
   35        0.0920886500
   36        0.0173042700
   37       -2.0824716800
   38      -23.3242128800
   39        0.0502407100
   40       -0.2812126800
   41        0.0633627700
   42       -0.0032346500
   43        0.0037400400
   44       -0.0002636300
   45       -0.1198654700
   46       -0.0000000000
   47        0.0000000000
   48       -0.2784285400
   49       -0.0000000000
   50        0.0000000000
   51       -0.5819816200
   52       -0.0000000000
   53        0.0000000000
   54        3.4935397400
   55       -0.0000000000
   56        0.0000000000
   57       -0.6013318800
   58       -0.4283610000
   59       -0.4283610000
   60        0.0000000000
   61        0.0000000000
   62        0.0000000000
   63       -1.3577225700
   64        0.1876645800
   65        0.1876645800
   66        0.0000000000
   67        0.0000000000
   68        0.0000000000
 Ene=          0.00004267
 Spin= Alpha
 Occup=        0.00000000
    1        0.0000000000
    2       -0.0000000000
    3        0.0000000000
    4        0.0000000000
    5       -0.0000000000
    6        0.0000000000
    7       -0.0000000000
    8       -0.0000000000
    9       -0.0000000000
   10       -0.0000000000
   11        0.0000000000
   12       -0.1851975800
   13       -0.3758376300
   14        0.0000000000
   15       -0.0175514900
   16       -0.0356187800
   17       -0.0000000000
   18        0.1230759600
   19        0.2497688000
   20        0.0000000000
   21       -0.0321946800
   22       -0.0653354700
   23        0.0000000000
   24        0.0000000000
   25        0.0000000000
   26        1.5314979300
   27        3.1080026000
   28        0.0000000000
   29        0.0000000000
   30        0.0000000000
   31        0.0000000000
   32        0.3647602900
   33        0.7402399400
   34       -0.0000000000
   35        0.0000000000
   36       -0.0000000000
   37       -0.0000000000
   38       -0.0000000000
   39        0.0000000000
   40       -0.0000000000
   41        0.0000000000
   42       -0.0000000000
   43        0.0000000000
   44       -0.0000000000
   45        0.0000000000
   46       -0.1906190600
   47       -0.3868399200
   48        0.0000000000
   49       -0.0194079200
   50       -0.0393862000
   51        0.0000000000
   52       -0.1621008900
   53       -0.3289655100
   54        0.0000000000
   55        0.0859182900
   56        0.1743614900
   57       -0.0000000000
   58       -0.0000000000
   59       -0.0000000000
   60       -1.7708326900
   61       -3.5937055400
   62       -0.0000000000
   63       -0.0000000000
   64       -0.0000000000
   65       -0.0000000000
   66       -0.4087365400
   67       -0.8294847800
   68        0.0000000000
 Ene=          0.00004267
 Spin= Alpha
 Occup=        0.00000000
    1        0.0000000000
    2       -0.0000000000
    3        0.0000000000
    4        0.0000000000
    5       -0.0000000000
    6        0.0000000000
    7       -0.0000000000
    8       -0.0000000000
    9       -0.0000000000
   10       -0.0000000000
   11        0.0000000000
   12        0.3758376300
   13       -0.1851975800
   14        0.0000000000
   15        0.0356187800
   16       -0.0175514900
   17        0.0000000000
   18       -0.2497688000
   19        0.1230759600
   20        0.0000000000
   21        0.0653354700
   22       -0.0321946800
   23        0.0000000000
   24        0.0000000000
   25        0.0000000000
   26       -3.1080026000
   27        1.5314979300
   28        0.0000000000
   29        0.0000000000
   30        0.0000000000
   31        0.0000000000
   32       -0.7402399400
   33        0.3647602900
   34       -0.0000000000
   35        0.0000000000
   36       -0.0000000000
   37       -0.0000000000
   38       -0.0000000000
   39        0.0000000000
   40       -0.0000000000
   41        0.0000000000
   42       -0.0000000000
   43        0.0000000000
   44       -0.0000000000
   45        0.0000000000
   46        0.3868399200
   47       -0.1906190600
   48        0.0000000000
   49        0.0393862000
   50       -0.0194079200
   51        0.0000000000
   52        0.3289655100
   53       -0.1621008900
   54        0.0000000000
   55       -0.1743614900
   56        0.0859182900
   57       -0.0000000000
   58       -0.0000000000
   59       -0.0000000000
   60        3.5937055400
   61       -1.7708326900
   62       -0.0000000000
   63       -0.0000000000
   64       -0.0000000000
   65       -0.0000000000
   66        0.8294847800
   67       -0.4087365400
   68        0.0000000000
 Ene=          0.00006621
 Spin= Alpha
 Occup=        0.00000000
    1       -1.2443467700
    2        0.3561031600
    3        1.0341313000
    4       13.8320987100
    5       -0.0618749400
    6        0.1178577500
    7       -0.0218542600
    8        0.0056939800
    9       -0.0009378200
   10        0.0001905500
   11       -0.1616419100
   12        0.0000000000
   13       -0.0000000000
   14        0.0722723700
   15        0.0000000000
   16       -0.0000000000
   17        0.3736943200
   18        0.0000000000
   19        0.0000000000
   20        1.3853286500
   21       -0.0000000000
   22       -0.0000000000
   23       -9.7632476500
   24       -7.6676251300
   25       -7.6676251200
   26        0.0000000000
   27        0.0000000000
   28        0.0000000000
   29       -1.1997730300
   30       -1.8906636900
   31       -1.8906636900
   32        0.0000000000
   33        0.0000000000
   34       -0.0000000000
   35       -1.2542846300
   36        0.3574445900
   37       -1.0134086100
   38      -13.6261789800
   39        0.0434993300
   40       -0.1694518400
   41        0.0380667400
   42       -0.0021119600
   43        0.0022492300
   44       -0.0001639800
   45       -0.0060761700
   46       -0.0000000000
   47        0.0000000000
   48        0.0200813500
   49       -0.0000000000
   50        0.0000000000
   51       -0.2359437300
   52       -0.0000000000
   53       -0.0000000000
   54        2.0342880300
   55        0.0000000000
   56        0.0000000000
   57       10.8385783100
   58        8.3203870100
   59        8.3203870100
   60        0.0000000000
   61       -0.0000000000
   62       -0.0000000000
   63        1.2549640400
   64        2.2478716700
   65        2.2478716700
   66        0.0000000000
   67       -0.0000000000
   68        0.0000000000
 Ene=          0.00016971
 Spin= Alpha
 Occup=        0.00000000
    1       -1.0602057400
    2        0.3470913800
    3       -0.2766288800
    4       -4.9344010400
    5        0.0402565500
    6       -0.0284797000
    7        0.0053305900
    8       -0.0004782700
    9        0.0001933500
   10       -0.0000203200
   11       -0.2207772500
   12       -0.0000000000
   13        0.0000000000
   14       -0.0636805000
   15       -0.0000000000
   16        0.0000000000
   17        0.0287921800
   18        0.0000000000
   19       -0.0000000000
   20       -0.5348318700
   21        0.0000000000
   22       -0.0000000000
   23        6.0903846000
   24       -1.1667436900
   25       -1.1667436900
   26       -0.0000000000
   27        0.0000000000
   28       -0.0000000000
   29        1.0581068600
   30        0.3833198400
   31        0.3833198400
   32        0.0000000000
   33       -0.0000000000
   34       -0.0000000000
   35       -1.0643959500
   36        0.3426192100
   37        0.4626435000
   38        4.8590730100
   39       -0.0281159600
   40        0.0209149900
   41       -0.0033218800
   42        0.0003128800
   43       -0.0001695000
   44        0.0000146000
   45       -0.1228445500
   46        0.0000000000
   47       -0.0000000000
   48       -0.0893559800
   49        0.0000000000
   50       -0.0000000000
   51       -0.0824730800
   52       -0.0000000000
   53        0.0000000000
   54       -0.6493158000
   55       -0.0000000000
   56        0.0000000000
   57       -6.0475200600
   58        2.1913648400
   59        2.1913648400
   60        0.0000000000
   61       -0.0000000000
   62        0.0000000000
   63       -0.6491027100
   64       -0.0615775400
   65       -0.0615775400
   66       -0.0000000000
   67        0.0000000000
   68        0.0000000000
 Ene=          0.00026524
 Spin= Alpha
 Occup=        0.00000000
    1       -0.0000000000
    2        0.0000000000
    3        0.0000000000
    4        0.0000000100
    5       -0.0000000000
    6        0.0000000000
    7       -0.0000000000
    8        0.0000000000
    9       -0.0000000000
   10        0.0000000000
   11        0.0000000000
   12        0.0000000000
   13       -0.0000000000
   14       -0.0000000000
   15       -0.0000000000
   16       -0.0000000000
   17        0.0000000000
   18       -0.0000000000
   19       -0.0000000000
   20        0.0000000000
   21       -0.0000000000
   22       -0.0000000000
   23        0.0000000100
   24        9.5114790000
   25       -9.5114789700
   26        0.0000000000
   27        0.0000000000
   28        0.0000003900
   29        0.0000000000
   30        0.1312419300
   31       -0.1312419200
   32       -0.0000000000
   33       -0.0000000000
   34        0.0000000100
   35       -0.0000000000
   36        0.0000000000
   37       -0.0000000000
   38       -0.0000000100
   39        0.0000000000
   40       -0.0000000000
   41        0.0000000000
   42       -0.0000000000
   43        0.0000000000
   44       -0.0000000000
   45        0.0000000000
   46       -0.0000000000
   47        0.0000000000
   48       -0.0000000000
   49        0.0000000000
   50        0.0000000000
   51       -0.0000000000
   52        0.0000000000
   53        0.0000000000
   54        0.0000000000
   55        0.0000000000
   56        0.0000000000
   57       -0.0000000100
   58      -10.3080995000
   59       10.3080994800
   60       -0.0000000000
   61       -0.0000000000
   62       -0.0000004200
   63       -0.0000000000
   64       -0.0268792500
   65        0.0268792400
   66        0.0000000000
   67        0.0000000000
   68       -0.0000000000
 Ene=          0.00026525
 Spin= Alpha
 Occup=        0.00000000
    1        0.0000000000
    2        0.0000000000
    3       -0.0000000000
    4       -0.0000000000
    5        0.0000000000
    6       -0.0000000000
    7        0.0000000000
    8        0.0000000000
    9        0.0000000000
   10        0.0000000000
   11       -0.0000000000
   12       -0.0000000000
   13       -0.0000000000
   14        0.0000000000
   15       -0.0000000000
   16        0.0000000000
   17       -0.0000000000
   18       -0.0000000000
   19        0.0000000000
   20       -0.0000000000
   21       -0.0000000000
   22        0.0000000000
   23       -0.0000000000
   24        0.0000003400
   25       -0.0000003400
   26        0.0000000000
   27       -0.0000000000
   28      -10.9830591000
   29        0.0000000000
   30        0.0000000000
   31       -0.0000000000
   32       -0.0000000000
   33        0.0000000000
   34       -0.1514009800
   35       -0.0000000000
   36       -0.0000000000
   37        0.0000000000
   38        0.0000000000
   39       -0.0000000000
   40        0.0000000000
   41       -0.0000000000
   42        0.0000000000
   43       -0.0000000000
   44        0.0000000000
   45        0.0000000000
   46       -0.0000000000
   47        0.0000000000
   48       -0.0000000000
   49        0.0000000000
   50       -0.0000000000
   51       -0.0000000000
   52        0.0000000000
   53       -0.0000000000
   54       -0.0000000000
   55        0.0000000000
   56       -0.0000000000
   57        0.0000000000
   58       -0.0000003600
   59        0.0000003600
   60       -0.0000000000
   61        0.0000000000
   62       11.9029364800
   63       -0.0000000000
   64       -0.0000000000
   65        0.0000000000
   66        0.0000000000
   67       -0.0000000000
   68        0.0308554500
 Ene=          0.00030597
 Spin= Alpha
 Occup=        0.00000000
    1       -0.9743340900
    2        0.2835036800
    3        0.8196952000
    4        8.4274800800
    5       -0.0135177100
    6        0.0341578000
    7       -0.0060937800
    8        0.0013831900
    9       -0.0002328300
   10        0.0000446500
   11        0.7429894400
   12        0.0000000000
   13       -0.0000000000
   14       -0.4970972200
   15        0.0000000000
   16       -0.0000000000
   17       -0.0249171300
   18       -0.0000000000
   19        0.0000000000
   20        0.9437271400
   21       -0.0000000000
   22        0.0000000000
   23        9.1267357500
   24       20.3651320100
   25       20.3651320200
   26        0.0000000000
   27       -0.0000000000
   28       -0.0000000000
   29        3.8131670000
   30        3.5496325500
   31        3.5496325500
   32       -0.0000000000
   33        0.0000000000
   34        0.0000000000
   35       -0.9325659300
   36        0.2498307300
   37       -0.7099813100
   38       -8.3712598000
   39        0.0122558800
   40       -0.0485706800
   41        0.0107166000
   42       -0.0006174600
   43        0.0006283000
   44       -0.0000460700
   45        0.8712318300
   46       -0.0000000000
   47        0.0000000000
   48       -0.5285368100
   49       -0.0000000000
   50        0.0000000000
   51       -0.0627438500
   52        0.0000000000
   53       -0.0000000000
   54        1.1438900700
   55        0.0000000000
   56       -0.0000000000
   57       -8.0629524700
   58      -20.0172223400
   59      -20.0172223400
   60       -0.0000000000
   61        0.0000000000
   62        0.0000000000
   63       -3.6666455100
   64       -3.2538432300
   65       -3.2538432300
   66        0.0000000000
   67       -0.0000000000
   68       -0.0000000000
 Ene=          0.00037024
 Spin= Alpha
 Occup=        0.00000000
    1       -0.0000000000
    2        0.0000000000
    3        0.0000000000
    4        0.0000000000
    5       -0.0000000000
    6        0.0000000000
    7       -0.0000000000
    8       -0.0000000000
    9        0.0000000000
   10       -0.0000000000
   11       -0.0000000000
   12       -0.0144121000
   13       -0.0182084300
   14        0.0000000000
   15        0.0138581400
   16        0.0175085500
   17       -0.0000000000
   18       -0.0972585100
   19       -0.1228776400
   20        0.0000000000
   21        0.0008932000
   22        0.0011284800
   23        0.0000000000
   24       -0.0000000000
   25       -0.0000000000
   26       -6.8730590600
   27       -8.6835105300
   28        0.0000000000
   29        0.0000000000
   30        0.0000000000
   31        0.0000000000
   32        0.7538499400
   33        0.9524236300
   34       -0.0000000000
   35       -0.0000000000
   36        0.0000000000
   37       -0.0000000000
   38       -0.0000000000
   39        0.0000000000
   40       -0.0000000000
   41        0.0000000000
   42       -0.0000000000
   43        0.0000000000
   44       -0.0000000000
   45       -0.0000000000
   46       -0.0048027400
   47       -0.0060678400
   48        0.0000000000
   49        0.0030953700
   50        0.0039107300
   51        0.0000000000
   52        0.0102131400
   53        0.0129034100
   54        0.0000000000
   55        0.0865735200
   56        0.1093780900
   57       -0.0000000000
   58        0.0000000000
   59        0.0000000000
   60        7.2965089100
   61        9.2185024900
   62       -0.0000000000
   63       -0.0000000000
   64       -0.0000000000
   65       -0.0000000000
   66       -1.0279818700
   67       -1.2987654200
   68        0.0000000000
 Ene=          0.00037024
 Spin= Alpha
 Occup=        0.00000000
    1       -0.0000000000
    2        0.0000000000
    3        0.0000000000
    4        0.0000000000
    5       -0.0000000000
    6        0.0000000000
    7       -0.0000000000
    8       -0.0000000000
    9       -0.0000000000
   10       -0.0000000000
   11       -0.0000000000
   12        0.0182084300
   13       -0.0144121000
   14        0.0000000000
   15       -0.0175085500
   16        0.0138581400
   17        0.0000000000
   18        0.1228776400
   19       -0.0972585100
   20        0.0000000000
   21       -0.0011284800
   22        0.0008932000
   23        0.0000000000
   24       -0.0000000000
   25       -0.0000000000
   26        8.6835105300
   27       -6.8730590600
   28        0.0000000000
   29        0.0000000000
   30        0.0000000000
   31        0.0000000000
   32       -0.9524236300
   33        0.7538499400
   34       -0.0000000000
   35       -0.0000000000
   36        0.0000000000
   37       -0.0000000000
   38       -0.0000000000
   39        0.0000000000
   40       -0.0000000000
   41        0.0000000000
   42       -0.0000000000
   43        0.0000000000
   44       -0.0000000000
   45       -0.0000000000
   46        0.0060678400
   47       -0.0048027400
   48        0.0000000000
   49       -0.0039107300
   50        0.0030953700
   51        0.0000000000
   52       -0.0129034100
   53        0.0102131400
   54        0.0000000000
   55       -0.1093780900
   56        0.0865735200
   57       -0.0000000000
   58        0.0000000000
   59        0.0000000000
   60       -9.2185024900
   61        7.2965089100
   62       -0.0000000000
   63       -0.0000000000
   64       -0.0000000000
   65       -0.0000000000
   66        1.2987654200
   67       -1.0279818700
   68        0.0000000000
 Ene=          0.00045202
 Spin= Alpha
 Occup=        0.00000000
    1        0.0000000000
    2       -0.0000000000
    3       -0.0000000000
    4       -0.0000000000
    5        0.0000000000
    6       -0.0000000000
    7        0.0000000000
    8        0.0000000000
    9        0.0000000000
   10        0.0000000000
   11        0.0000000000
   12       -0.3181400000
   13       -0.5353797400
   14       -0.0000000000
   15        0.2049273800
   16        0.3448606600