 Molden2AIM, Version 3.1.0 (02/25/2015)           Time: Mon Dec  2 17:18:45 2024
GAUSSIAN             68 MOL ORBITALS     68 PRIMITIVES        2 NUCLEI
  Be   1    (CENTRE  1)   0.00000000  0.00000000  0.00000000  CHARGE =  4.0
  Be   2    (CENTRE  2)   4.54000000  0.00000000  0.00000000  CHARGE =  4.0
CENTRE ASSIGNMENTS    1  1  1  1  1  1  1  1  1  1  1  1  1  1  1  1  1  1  1  1
CENTRE ASSIGNMENTS    1  1  1  1  1  1  1  1  1  1  1  1  1  1  2  2  2  2  2  2
CENTRE ASSIGNMENTS    2  2  2  2  2  2  2  2  2  2  2  2  2  2  2  2  2  2  2  2
CENTRE ASSIGNMENTS    2  2  2  2  2  2  2  2
TYPE ASSIGNMENTS      1  1  1  1  1  1  1  1  1  1  2  3  4  2  3  4  2  3  4  2
TYPE ASSIGNMENTS      3  4  5  6  7  8  9 10  5  6  7  8  9 10  1  1  1  1  1  1
TYPE ASSIGNMENTS      1  1  1  1  2  3  4  2  3  4  2  3  4  2  3  4  5  6  7  8
TYPE ASSIGNMENTS      9 10  5  6  7  8  9 10
EXPONENTS  0.1000000D-03 0.3000000D-03 0.9000000D-03 0.2700000D-02 0.8100000D-02
EXPONENTS  0.2430000D-01 0.7290000D-01 0.2187000D+00 0.6561000D+00 0.1968300D+01
EXPONENTS  0.1000000D-03 0.1000000D-03 0.1000000D-03 0.3000000D-03 0.3000000D-03
EXPONENTS  0.3000000D-03 0.9000000D-03 0.9000000D-03 0.9000000D-03 0.2700000D-02
EXPONENTS  0.2700000D-02 0.2700000D-02 0.1000000D-03 0.1000000D-03 0.1000000D-03
EXPONENTS  0.1000000D-03 0.1000000D-03 0.1000000D-03 0.3000000D-03 0.3000000D-03
EXPONENTS  0.3000000D-03 0.3000000D-03 0.3000000D-03 0.3000000D-03 0.1000000D-03
EXPONENTS  0.3000000D-03 0.9000000D-03 0.2700000D-02 0.8100000D-02 0.2430000D-01
EXPONENTS  0.7290000D-01 0.2187000D+00 0.6561000D+00 0.1968300D+01 0.1000000D-03
EXPONENTS  0.1000000D-03 0.1000000D-03 0.3000000D-03 0.3000000D-03 0.3000000D-03
EXPONENTS  0.9000000D-03 0.9000000D-03 0.9000000D-03 0.2700000D-02 0.2700000D-02
EXPONENTS  0.2700000D-02 0.1000000D-03 0.1000000D-03 0.1000000D-03 0.1000000D-03
EXPONENTS  0.1000000D-03 0.1000000D-03 0.3000000D-03 0.3000000D-03 0.3000000D-03
EXPONENTS  0.3000000D-03 0.3000000D-03 0.3000000D-03
MO    1     MO 0.0        OCC NO =    1.0000000  ORB. ENERGY =   -0.082546
 -0.85556514D-05 -0.48699361D-05  0.35815350D-04 -0.29011892D-03  0.19393428D-02
  0.10003630D-01  0.40704181D-01 -0.40478390D-01 -0.22657935D-01  0.34544646D-02
 -0.81613329D-08  0.00000000D+00 -0.00000000D+00 -0.39789947D-07  0.00000000D+00
 -0.00000000D+00  0.20196226D-04  0.00000000D+00  0.00000000D+00 -0.64264793D-04
  0.00000000D+00 -0.00000000D+00  0.82766873D-10  0.39832154D-09  0.39832154D-09
 -0.00000000D+00  0.00000000D+00  0.00000000D+00  0.91669954D-08  0.31495525D-08
  0.31495525D-08  0.00000000D+00  0.00000000D+00 -0.00000000D+00 -0.85556443D-05
 -0.48699199D-05  0.35605223D-04 -0.29617411D-03  0.19401281D-02  0.10015962D-01
  0.40704355D-01 -0.40480875D-01 -0.22660055D-01  0.34546896D-02  0.81663218D-08
 -0.00000000D+00  0.00000000D+00  0.39795574D-07 -0.00000000D+00 -0.00000000D+00
 -0.20195551D-04 -0.00000000D+00 -0.00000000D+00  0.64339460D-04 -0.00000000D+00
  0.00000000D+00  0.82455794D-10  0.39774382D-09  0.39774382D-09  0.00000000D+00
 -0.00000000D+00 -0.00000000D+00  0.91606810D-08  0.31457143D-08  0.31457143D-08
 -0.00000000D+00 -0.00000000D+00  0.00000000D+00
MO    2     MO 0.0        OCC NO =    0.0000000  ORB. ENERGY =   -0.048565
 -0.52975398D-07 -0.17961767D-06 -0.16851448D-02 -0.48741477D-01  0.97291762D-02
  0.53222729D-01  0.13104841D-01 -0.18465385D-01 -0.11576840D-01  0.15846074D-02
  0.36746809D-07 -0.00000000D+00  0.00000000D+00  0.76863898D-07 -0.00000000D+00
  0.00000000D+00 -0.75944637D-05  0.00000000D+00 -0.00000000D+00 -0.59241835D-03
 -0.00000000D+00  0.00000000D+00  0.47799194D-08  0.25370287D-08  0.25370287D-08
 -0.00000000D+00  0.00000000D+00  0.00000000D+00  0.35160329D-07  0.55654295D-07
  0.55654295D-07 -0.00000000D+00  0.00000000D+00 -0.00000000D+00  0.42527135D-07
  0.13869357D-06  0.16852747D-02  0.48741515D-01 -0.97307014D-02 -0.53220432D-01
 -0.13089289D-01  0.18452418D-01  0.11571078D-01 -0.15838376D-02  0.36758212D-07
  0.00000000D+00 -0.00000000D+00  0.76995027D-07  0.00000000D+00 -0.00000000D+00
 -0.75622892D-05 -0.00000000D+00  0.00000000D+00 -0.59252975D-03  0.00000000D+00
 -0.00000000D+00 -0.47792693D-08 -0.25368509D-08 -0.25368509D-08 -0.00000000D+00
  0.00000000D+00 -0.00000000D+00 -0.35156974D-07 -0.55641396D-07 -0.55641396D-07
 -0.00000000D+00  0.00000000D+00  0.00000000D+00
MO    3     MO 0.0        OCC NO =    0.0000000  ORB. ENERGY =   -0.002637
 -0.21414552D-03 -0.47113454D-03  0.11750139D-02 -0.36239164D-02 -0.65582021D-02
  0.11539258D-01  0.19604552D-01 -0.16099732D-01 -0.84939290D-02  0.10875493D-02
 -0.22546751D-06 -0.00000000D+00 -0.00000000D+00 -0.17201135D-05  0.00000000D+00
 -0.00000000D+00 -0.18636191D-03 -0.00000000D+00  0.00000000D+00  0.78168839D-03
  0.00000000D+00  0.00000000D+00  0.97269148D-08  0.61152549D-08  0.61152549D-08
  0.00000000D+00  0.00000000D+00  0.00000000D+00  0.11217998D-06  0.18023013D-06
  0.18023013D-06  0.00000000D+00 -0.00000000D+00 -0.00000000D+00 -0.21414503D-03
 -0.47113371D-03  0.11759178D-02 -0.35969462D-02 -0.65736241D-02  0.11558527D-01
  0.19614233D-01 -0.16109032D-01 -0.84959085D-02  0.10872769D-02  0.22585280D-06
  0.00000000D+00  0.00000000D+00  0.17203943D-05 -0.00000000D+00  0.00000000D+00
  0.18634805D-03  0.00000000D+00 -0.00000000D+00 -0.78202468D-03  0.00000000D+00
 -0.00000000D+00  0.96870769D-08  0.60781443D-08  0.60781443D-08 -0.00000000D+00
 -0.00000000D+00 -0.00000000D+00  0.11179711D-06  0.17982438D-06  0.17982438D-06
 -0.00000000D+00  0.00000000D+00  0.00000000D+00
MO    4     MO 0.0        OCC NO =    0.0000000  ORB. ENERGY =    0.000088
  0.85917933D-03 -0.56849014D-03 -0.48494165D-03  0.41584988D-03  0.21601399D-03
 -0.46779601D-03 -0.99076402D-03  0.79494038D-03  0.37079602D-03 -0.40480943D-04
  0.10321317D-05 -0.00000000D+00  0.00000000D+00 -0.67930717D-06 -0.00000000D+00
  0.00000000D+00  0.20871722D-04  0.00000000D+00 -0.00000000D+00 -0.54490772D-04
 -0.00000000D+00  0.00000000D+00 -0.74742929D-07 -0.73728665D-07 -0.73728665D-07
  0.00000000D+00  0.00000000D+00  0.00000000D+00 -0.24642586D-06 -0.25625689D-06
 -0.25625689D-06 -0.00000000D+00  0.00000000D+00  0.00000000D+00  0.85917874D-03
 -0.56848628D-03 -0.48493232D-03  0.41432682D-03  0.21701193D-03 -0.46913476D-03
 -0.99136296D-03  0.79552843D-03  0.37094669D-03 -0.40469099D-04 -0.10322202D-05
 -0.00000000D+00 -0.00000000D+00  0.68338735D-06  0.00000000D+00 -0.00000000D+00
 -0.20868046D-04 -0.00000000D+00  0.00000000D+00  0.54509582D-04  0.00000000D+00
 -0.00000000D+00 -0.74362516D-07 -0.73350210D-07 -0.73350210D-07 -0.00000000D+00
 -0.00000000D+00 -0.00000000D+00 -0.24583924D-06 -0.25567172D-06 -0.25567172D-06
  0.00000000D+00 -0.00000000D+00 -0.00000000D+00
MO    5     MO 0.0        OCC NO =    0.0000000  ORB. ENERGY =    0.000137
  0.52007401D-05 -0.18449039D-04 -0.64263839D-03 -0.92416686D-02 -0.38768141D-03
  0.49192860D-03  0.88985930D-04 -0.11595810D-03 -0.70530581D-04  0.88825943D-05
 -0.24027301D-05 -0.00000000D+00  0.00000000D+00  0.19832022D-04 -0.00000000D+00
  0.00000000D+00  0.10866908D-04  0.00000000D+00  0.00000000D+00 -0.12419211D-03
 -0.00000000D+00 -0.00000000D+00 -0.20210829D-05 -0.20156827D-05 -0.20156827D-05
  0.00000000D+00  0.00000000D+00  0.00000000D+00 -0.30809515D-05 -0.30742717D-05
 -0.30742717D-05 -0.00000000D+00  0.00000000D+00 -0.00000000D+00 -0.54628518D-05
  0.18619299D-04  0.64276160D-03  0.92415715D-02  0.38765312D-03 -0.49184920D-03
 -0.88698960D-04  0.11573701D-03  0.70437059D-04 -0.88707508D-05 -0.24024346D-05
  0.00000000D+00 -0.00000000D+00  0.19831803D-04  0.00000000D+00 -0.00000000D+00
  0.10868106D-04  0.00000000D+00 -0.00000000D+00 -0.12420380D-03 -0.00000000D+00
  0.00000000D+00  0.20210999D-05  0.20157051D-05  0.20157051D-05 -0.00000000D+00
  0.00000000D+00 -0.00000000D+00  0.30810212D-05  0.30743417D-05  0.30743417D-05
 -0.00000000D+00  0.00000000D+00  0.00000000D+00
MO    6     MO 0.0        OCC NO =    0.0000000  ORB. ENERGY =    0.000209
  0.00000000D+00  0.00000000D+00 -0.00000000D+00  0.00000000D+00 -0.00000000D+00
  0.00000000D+00  0.00000000D+00 -0.00000000D+00  0.00000000D+00 -0.00000000D+00
 -0.00000000D+00  0.92072818D-05 -0.14837102D-08 -0.00000000D+00 -0.72505092D-05
  0.11683394D-08 -0.00000000D+00  0.27575101D-05 -0.44439915D-09  0.00000000D+00
  0.66893523D-05 -0.10790707D-08  0.00000000D+00 -0.00000000D+00 -0.00000000D+00
 -0.11774055D-05  0.18972505D-09  0.00000000D+00  0.00000000D+00  0.00000000D+00
  0.00000000D+00  0.13654774D-05 -0.22002515D-09 -0.00000000D+00 -0.00000000D+00
 -0.00000000D+00  0.00000000D+00 -0.00000000D+00  0.00000000D+00 -0.00000000D+00
 -0.00000000D+00  0.00000000D+00 -0.00000000D+00  0.00000000D+00  0.00000000D+00
  0.92072668D-05 -0.14837102D-08  0.00000000D+00 -0.72504990D-05  0.11683394D-08
 -0.00000000D+00  0.27461646D-05 -0.44217716D-09  0.00000000D+00  0.67045997D-05
 -0.10790707D-08 -0.00000000D+00  0.00000000D+00  0.00000000D+00  0.11773923D-05
 -0.18972505D-09 -0.00000000D+00 -0.00000000D+00 -0.00000000D+00 -0.00000000D+00
 -0.13654674D-05  0.22002515D-09  0.00000000D+00
MO    7     MO 0.0        OCC NO =    0.0000000  ORB. ENERGY =    0.000209
 -0.00000000D+00  0.00000000D+00  0.00000000D+00  0.00000000D+00 -0.00000000D+00
  0.00000000D+00 -0.00000000D+00  0.00000000D+00 -0.00000000D+00  0.00000000D+00
  0.00000000D+00  0.14837102D-08  0.92072818D-05 -0.00000000D+00 -0.11683394D-08
 -0.72505092D-05  0.00000000D+00  0.44439915D-09  0.27575101D-05  0.00000000D+00
  0.10790707D-08  0.66893523D-05  0.00000000D+00  0.00000000D+00 -0.00000000D+00
 -0.18972505D-09 -0.11774055D-05 -0.00000000D+00  0.00000000D+00 -0.00000000D+00
  0.00000000D+00  0.22002515D-09  0.13654774D-05  0.00000000D+00  0.00000000D+00
 -0.00000000D+00 -0.00000000D+00 -0.00000000D+00  0.00000000D+00 -0.00000000D+00
  0.00000000D+00  0.00000000D+00  0.00000000D+00 -0.00000000D+00 -0.00000000D+00
  0.14837102D-08  0.92072668D-05  0.00000000D+00 -0.11683394D-08 -0.72504990D-05
 -0.00000000D+00  0.44217716D-09  0.27461646D-05  0.00000000D+00  0.10790707D-08
  0.67045997D-05 -0.00000000D+00 -0.00000000D+00  0.00000000D+00  0.18972505D-09
  0.11773923D-05  0.00000000D+00 -0.00000000D+00  0.00000000D+00 -0.00000000D+00
 -0.22002515D-09 -0.13654674D-05 -0.00000000D+00
MO    8     MO 0.0        OCC NO =    0.0000000  ORB. ENERGY =    0.000326
  0.33618944D-04  0.91914567D-04 -0.26352036D-03 -0.11242818D-04  0.86310842D-04
 -0.54398762D-04  0.35494382D-04 -0.21675903D-04  0.13934661D-04 -0.53414000D-05
  0.34739816D-06 -0.00000000D+00 -0.00000000D+00 -0.86971497D-07  0.00000000D+00
  0.00000000D+00  0.71373823D-04 -0.00000000D+00 -0.00000000D+00 -0.29070551D-04
  0.00000000D+00  0.00000000D+00 -0.92766535D-07  0.45564541D-07  0.45564541D-07
  0.00000000D+00  0.00000000D+00 -0.00000000D+00  0.10277147D-06 -0.93536979D-07
 -0.93536979D-07 -0.00000000D+00 -0.00000000D+00 -0.00000000D+00  0.33621496D-04
  0.91911188D-04 -0.26370627D-03 -0.15089559D-04  0.86337205D-04 -0.54480789D-04
  0.35453387D-04 -0.21637155D-04  0.13945052D-04 -0.53414000D-05 -0.34537522D-06
  0.00000000D+00  0.00000000D+00  0.83316215D-07 -0.00000000D+00 -0.00000000D+00
 -0.71375408D-04  0.00000000D+00  0.00000000D+00  0.29120416D-04 -0.00000000D+00
 -0.00000000D+00 -0.92962041D-07  0.45063641D-07  0.45063641D-07  0.00000000D+00
  0.00000000D+00  0.00000000D+00  0.10218223D-06 -0.94069597D-07 -0.94069597D-07
 -0.00000000D+00 -0.00000000D+00 -0.00000000D+00
MO    9     MO 0.0        OCC NO =    0.0000000  ORB. ENERGY =    0.000326
 -0.00000000D+00 -0.00000000D+00  0.00000000D+00 -0.00000000D+00 -0.00000000D+00
  0.00000000D+00 -0.00000000D+00  0.00000000D+00  0.00000000D+00  0.00000000D+00
 -0.00000000D+00 -0.18014586D-06 -0.14827410D-07  0.00000000D+00  0.24993064D-06
  0.20571439D-07 -0.00000000D+00 -0.86237671D-04 -0.70980299D-05  0.00000000D+00
  0.39025075D-04  0.32120689D-05  0.00000000D+00 -0.00000000D+00 -0.00000000D+00
  0.15927483D-06  0.13109556D-07  0.00000000D+00 -0.00000000D+00  0.00000000D+00
  0.00000000D+00 -0.22817347D-06 -0.18780451D-07 -0.00000000D+00 -0.00000000D+00
 -0.00000000D+00  0.00000000D+00  0.00000000D+00 -0.00000000D+00  0.00000000D+00
 -0.00000000D+00  0.00000000D+00 -0.00000000D+00  0.00000000D+00  0.00000000D+00
  0.18095407D-06  0.14893976D-07  0.00000000D+00 -0.25133703D-06 -0.20686810D-07
  0.00000000D+00  0.86238288D-04  0.70980810D-05 -0.00000000D+00 -0.39025470D-04
 -0.32120952D-05  0.00000000D+00 -0.00000000D+00  0.00000000D+00  0.15923111D-06
  0.13105958D-07 -0.00000000D+00 -0.00000000D+00  0.00000000D+00  0.00000000D+00
 -0.22838232D-06 -0.18797646D-07  0.00000000D+00
MO   10     MO 0.0        OCC NO =    0.0000000  ORB. ENERGY =    0.000326
  0.00000000D+00  0.00000000D+00 -0.00000000D+00 -0.00000000D+00  0.00000000D+00
 -0.00000000D+00  0.00000000D+00 -0.00000000D+00  0.00000000D+00 -0.00000000D+00
  0.00000000D+00 -0.14827410D-07  0.18014586D-06 -0.00000000D+00  0.20571439D-07
 -0.24993064D-06  0.00000000D+00 -0.70980299D-05  0.86237671D-04 -0.00000000D+00
  0.32120689D-05 -0.39025075D-04 -0.00000000D+00  0.00000000D+00  0.00000000D+00
  0.13109556D-07 -0.15927483D-06  0.00000000D+00  0.00000000D+00 -0.00000000D+00
 -0.00000000D+00 -0.18780451D-07  0.22817347D-06 -0.00000000D+00  0.00000000D+00
  0.00000000D+00 -0.00000000D+00  0.00000000D+00  0.00000000D+00 -0.00000000D+00
  0.00000000D+00 -0.00000000D+00  0.00000000D+00 -0.00000000D+00 -0.00000000D+00
  0.14893976D-07 -0.18095407D-06  0.00000000D+00 -0.20686810D-07  0.25133703D-06
 -0.00000000D+00  0.70980810D-05 -0.86238288D-04  0.00000000D+00 -0.32120952D-05
  0.39025470D-04 -0.00000000D+00  0.00000000D+00 -0.00000000D+00  0.13105958D-07
 -0.15923111D-06 -0.00000000D+00  0.00000000D+00 -0.00000000D+00 -0.00000000D+00
 -0.18797646D-07  0.22838232D-06  0.00000000D+00
MO   11     MO 0.0        OCC NO =    0.0000000  ORB. ENERGY =    0.000331
  0.00000000D+00 -0.00000000D+00 -0.00000000D+00 -0.00000000D+00  0.00000000D+00
  0.00000000D+00  0.00000000D+00 -0.00000000D+00 -0.00000000D+00  0.00000000D+00
  0.00000000D+00 -0.00000000D+00 -0.00000000D+00 -0.00000000D+00 -0.00000000D+00
 -0.00000000D+00  0.00000000D+00 -0.00000000D+00 -0.00000000D+00 -0.00000000D+00
  0.00000000D+00  0.00000000D+00  0.00000000D+00  0.78330352D-07 -0.78330352D-07
  0.00000000D+00  0.00000000D+00 -0.10633566D-11  0.00000000D+00 -0.86796662D-07
  0.86796662D-07  0.00000000D+00  0.00000000D+00  0.11697243D-11  0.00000000D+00
 -0.00000000D+00 -0.00000000D+00  0.00000000D+00 -0.00000000D+00  0.00000000D+00
  0.00000000D+00 -0.00000000D+00 -0.00000000D+00  0.00000000D+00  0.00000000D+00
  0.00000000D+00  0.00000000D+00 -0.00000000D+00 -0.00000000D+00 -0.00000000D+00
 -0.00000000D+00  0.00000000D+00  0.00000000D+00 -0.00000000D+00 -0.00000000D+00
 -0.00000000D+00 -0.00000000D+00  0.78144893D-07 -0.78144893D-07 -0.00000000D+00
 -0.00000000D+00 -0.10605057D-11 -0.00000000D+00 -0.86758438D-07  0.86758438D-07
 -0.00000000D+00 -0.00000000D+00  0.11697243D-11
MO   12     MO 0.0        OCC NO =    0.0000000  ORB. ENERGY =    0.000331
 -0.00000000D+00  0.00000000D+00  0.00000000D+00  0.00000000D+00  0.00000000D+00
  0.00000000D+00  0.00000000D+00 -0.00000000D+00 -0.00000000D+00  0.00000000D+00
  0.00000000D+00  0.00000000D+00 -0.00000000D+00 -0.00000000D+00  0.00000000D+00
 -0.00000000D+00  0.00000000D+00  0.00000000D+00 -0.00000000D+00  0.00000000D+00
 -0.00000000D+00  0.00000000D+00  0.00000000D+00 -0.53163306D-12  0.53163306D-12
 -0.00000000D+00  0.00000000D+00 -0.15666070D-06  0.00000000D+00  0.58529524D-12
 -0.58529524D-12 -0.00000000D+00  0.00000000D+00  0.17359323D-06 -0.00000000D+00
  0.00000000D+00 -0.00000000D+00 -0.00000000D+00  0.00000000D+00 -0.00000000D+00
 -0.00000000D+00  0.00000000D+00  0.00000000D+00 -0.00000000D+00  0.00000000D+00
 -0.00000000D+00  0.00000000D+00 -0.00000000D+00  0.00000000D+00 -0.00000000D+00
 -0.00000000D+00 -0.00000000D+00  0.00000000D+00  0.00000000D+00  0.00000000D+00
 -0.00000000D+00 -0.00000000D+00 -0.53163306D-12  0.53163306D-12  0.00000000D+00
 -0.00000000D+00 -0.15628978D-06 -0.00000000D+00  0.58529524D-12 -0.58529524D-12
  0.00000000D+00 -0.00000000D+00  0.17351681D-06
MO   13     MO 0.0        OCC NO =    0.0000000  ORB. ENERGY =    0.000385
  0.26842315D-02 -0.17807587D-02 -0.11246433D-02 -0.25692238D-04 -0.91252495D-03
  0.13662439D-02  0.19021711D-02 -0.15705571D-02 -0.90552433D-03  0.12620390D-03
  0.28802683D-05 -0.00000000D+00  0.00000000D+00 -0.28443424D-05 -0.00000000D+00
  0.00000000D+00 -0.19246483D-06 -0.00000000D+00 -0.00000000D+00  0.72933442D-04
  0.00000000D+00  0.00000000D+00 -0.13407292D-06 -0.13484663D-06 -0.13484663D-06
  0.00000000D+00  0.00000000D+00 -0.00000000D+00 -0.56811863D-06 -0.56834986D-06
 -0.56834986D-06  0.00000000D+00  0.00000000D+00 -0.00000000D+00  0.26842167D-02
 -0.17807396D-02 -0.11235155D-02 -0.26972262D-05 -0.91473982D-03  0.13696482D-02
  0.19037410D-02 -0.15720865D-02 -0.90591400D-03  0.12616837D-03 -0.28911918D-05
  0.00000000D+00 -0.00000000D+00  0.28651058D-05  0.00000000D+00 -0.00000000D+00
  0.19950189D-06  0.00000000D+00  0.00000000D+00 -0.73235959D-04 -0.00000000D+00
 -0.00000000D+00 -0.13216326D-06 -0.13291438D-06 -0.13291438D-06 -0.00000000D+00
 -0.00000000D+00  0.00000000D+00 -0.56464614D-06 -0.56486379D-06 -0.56486379D-06
 -0.00000000D+00 -0.00000000D+00  0.00000000D+00
MO   14     MO 0.0        OCC NO =    0.0000000  ORB. ENERGY =    0.000429
 -0.26458442D-04  0.36280512D-04  0.16255962D-02  0.30289570D-01 -0.34531765D-03
  0.11827843D-02  0.50338269D-03 -0.50477958D-03 -0.15910556D-03  0.43820798D-06
  0.20671643D-04  0.00000000D+00 -0.00000000D+00 -0.39759327D-04  0.00000000D+00
 -0.00000000D+00 -0.19578342D-04 -0.00000000D+00 -0.00000000D+00  0.39970334D-03
 -0.00000000D+00  0.00000000D+00  0.29920386D-05  0.36002175D-05  0.36002176D-05
 -0.00000000D+00 -0.00000000D+00 -0.00000000D+00  0.64028232D-05  0.61191250D-05
  0.61191249D-05  0.00000000D+00 -0.00000000D+00  0.00000000D+00  0.28189504D-04
 -0.37472363D-04 -0.16263095D-02 -0.30289559D-01  0.34474170D-03 -0.11819369D-02
 -0.50193684D-03  0.50361715D-03  0.15847169D-03 -0.35530377D-06  0.20669821D-04
 -0.00000000D+00  0.00000000D+00 -0.39757482D-04 -0.00000000D+00  0.00000000D+00
 -0.19574138D-04 -0.00000000D+00  0.00000000D+00  0.39965125D-03  0.00000000D+00
 -0.00000000D+00 -0.29921130D-05 -0.36003057D-05 -0.36003058D-05  0.00000000D+00
  0.00000000D+00  0.00000000D+00 -0.64032224D-05 -0.61194802D-05 -0.61194801D-05
 -0.00000000D+00 -0.00000000D+00 -0.00000000D+00
MO   15     MO 0.0        OCC NO =    0.0000000  ORB. ENERGY =    0.000432
  0.30284495D-05  0.15175386D-05 -0.42029235D-04 -0.52332618D-02  0.23468436D-04
  0.14097269D-03  0.81240720D-04 -0.76848027D-04 -0.18512004D-04 -0.14093716D-05
 -0.50314975D-05 -0.00000000D+00  0.00000000D+00 -0.12989969D-05 -0.00000000D+00
  0.00000000D+00 -0.32662427D-05 -0.00000000D+00  0.00000000D+00 -0.62530832D-04
  0.00000000D+00 -0.00000000D+00  0.21735037D-05 -0.21192916D-05 -0.21192921D-05
 -0.00000000D+00 -0.00000000D+00 -0.00000000D+00 -0.74495895D-07  0.22788220D-05
  0.22788222D-05  0.00000000D+00  0.00000000D+00  0.00000000D+00 -0.27933493D-05
 -0.16695541D-05  0.41910284D-04  0.52332627D-02 -0.23537711D-04 -0.14086522D-03
 -0.81042740D-04  0.76690758D-04  0.18428874D-04  0.14212151D-05 -0.50317679D-05
  0.00000000D+00 -0.00000000D+00 -0.12987454D-05  0.00000000D+00 -0.00000000D+00
 -0.32719798D-05 -0.00000000D+00 -0.00000000D+00 -0.62535236D-04 -0.00000000D+00
  0.00000000D+00 -0.21735205D-05  0.21192832D-05  0.21192836D-05  0.00000000D+00
  0.00000000D+00  0.00000000D+00  0.74450287D-07 -0.22788775D-05 -0.22788778D-05
 -0.00000000D+00 -0.00000000D+00 -0.00000000D+00
MO   16     MO 0.0        OCC NO =    0.0000000  ORB. ENERGY =    0.000432
  0.00000000D+00  0.00000000D+00 -0.00000000D+00 -0.00000000D+00  0.00000000D+00
 -0.00000000D+00 -0.00000000D+00  0.00000000D+00  0.00000000D+00  0.00000000D+00
  0.00000000D+00  0.00000000D+00 -0.00000000D+00  0.00000000D+00 -0.00000000D+00
  0.00000000D+00  0.00000000D+00  0.00000000D+00  0.00000000D+00 -0.00000000D+00
  0.00000000D+00 -0.00000000D+00 -0.00000000D+00 -0.36802833D-11  0.36802833D-11
  0.00000000D+00 -0.00000000D+00 -0.67169833D-05 -0.00000000D+00  0.20035106D-11
 -0.20147663D-11 -0.00000000D+00  0.00000000D+00  0.36666374D-05 -0.00000000D+00
 -0.00000000D+00  0.00000000D+00  0.00000000D+00 -0.00000000D+00  0.00000000D+00
  0.00000000D+00 -0.00000000D+00 -0.00000000D+00 -0.00000000D+00  0.00000000D+00
 -0.00000000D+00  0.00000000D+00  0.00000000D+00  0.00000000D+00 -0.00000000D+00
  0.00000000D+00  0.00000000D+00 -0.00000000D+00 -0.00000000D+00  0.00000000D+00
  0.00000000D+00  0.00000000D+00  0.36802833D-11 -0.36802833D-11 -0.00000000D+00
  0.00000000D+00  0.67169923D-05  0.00000000D+00 -0.20035106D-11  0.20147663D-11
  0.00000000D+00 -0.00000000D+00 -0.36666480D-05
MO   17     MO 0.0        OCC NO =    0.0000000  ORB. ENERGY =    0.000432
 -0.00000000D+00  0.00000000D+00  0.37033263D-10  0.75975825D-09 -0.00000000D+00
  0.00000000D+00  0.00000000D+00 -0.00000000D+00 -0.00000000D+00  0.00000000D+00
  0.57016438D-12  0.00000000D+00 -0.00000000D+00 -0.56278389D-12 -0.00000000D+00
 -0.00000000D+00 -0.00000000D+00 -0.00000000D+00 -0.00000000D+00  0.87729326D-11
  0.00000000D+00 -0.00000000D+00 -0.97109444D-13  0.33584914D-05 -0.33584910D-05
  0.00000000D+00 -0.00000000D+00 -0.73608221D-11  0.10130110D-12 -0.18333141D-05
  0.18333140D-05 -0.00000000D+00  0.00000000D+00  0.40160536D-11  0.00000000D+00
 -0.00000000D+00 -0.37033263D-10 -0.75975825D-09  0.00000000D+00 -0.00000000D+00
 -0.00000000D+00  0.00000000D+00  0.00000000D+00 -0.00000000D+00  0.57016438D-12
 -0.00000000D+00  0.00000000D+00 -0.56278389D-12  0.00000000D+00  0.00000000D+00
 -0.00000000D+00  0.00000000D+00 -0.00000000D+00  0.87729326D-11 -0.00000000D+00
  0.00000000D+00  0.97109444D-13 -0.33584959D-05  0.33584955D-05 -0.00000000D+00
  0.00000000D+00  0.73608221D-11 -0.10130110D-12  0.18333195D-05 -0.18333193D-05
  0.00000000D+00 -0.00000000D+00 -0.40160536D-11
MO   18     MO 0.0        OCC NO =    0.0000000  ORB. ENERGY =    0.000444
 -0.00000000D+00 -0.00000000D+00  0.00000000D+00  0.00000000D+00 -0.00000000D+00
  0.00000000D+00  0.00000000D+00 -0.00000000D+00 -0.00000000D+00 -0.00000000D+00
  0.00000000D+00 -0.24454131D-05  0.15827763D-08 -0.00000000D+00 -0.52700603D-05
  0.34110332D-08 -0.00000000D+00  0.91093805D-05 -0.58971767D-08  0.00000000D+00
  0.13758502D-05 -0.89483913D-09  0.00000000D+00 -0.00000000D+00  0.00000000D+00
  0.46816871D-05 -0.30303011D-08  0.00000000D+00  0.00000000D+00  0.00000000D+00
  0.00000000D+00 -0.20555722D-05  0.13305030D-08 -0.00000000D+00 -0.00000000D+00
  0.00000000D+00 -0.00000000D+00 -0.00000000D+00  0.00000000D+00 -0.00000000D+00
 -0.00000000D+00  0.00000000D+00  0.00000000D+00 -0.00000000D+00  0.00000000D+00
 -0.24454180D-05  0.15827763D-08 -0.00000000D+00 -0.52700637D-05  0.34110332D-08
 -0.00000000D+00  0.91027011D-05 -0.58927327D-08  0.00000000D+00  0.13866497D-05
 -0.89483913D-09 -0.00000000D+00  0.00000000D+00 -0.00000000D+00 -0.46816915D-05
  0.30303039D-08 -0.00000000D+00 -0.00000000D+00 -0.00000000D+00 -0.00000000D+00
  0.20555698D-05 -0.13305030D-08  0.00000000D+00
MO   19     MO 0.0        OCC NO =    0.0000000  ORB. ENERGY =    0.000444
  0.00000000D+00  0.00000000D+00  0.00000000D+00  0.00000000D+00 -0.00000000D+00
 -0.00000000D+00 -0.00000000D+00  0.00000000D+00  0.00000000D+00  0.00000000D+00
  0.00000000D+00  0.15827763D-08  0.24454131D-05  0.00000000D+00  0.34110332D-08
  0.52700603D-05  0.00000000D+00 -0.58971767D-08 -0.91093805D-05  0.00000000D+00
 -0.89483913D-09 -0.13758502D-05 -0.00000000D+00 -0.00000000D+00  0.00000000D+00
 -0.30303011D-08 -0.46816871D-05  0.00000000D+00 -0.00000000D+00  0.00000000D+00
 -0.00000000D+00  0.13305030D-08  0.20555722D-05 -0.00000000D+00  0.00000000D+00
 -0.00000000D+00 -0.00000000D+00 -0.00000000D+00  0.00000000D+00  0.00000000D+00
  0.00000000D+00 -0.00000000D+00 -0.00000000D+00  0.00000000D+00 -0.00000000D+00
  0.15827763D-08  0.24454180D-05  0.00000000D+00  0.34110332D-08  0.52700637D-05
  0.00000000D+00 -0.58927327D-08 -0.91027011D-05  0.00000000D+00 -0.89483913D-09
 -0.13866497D-05  0.00000000D+00  0.00000000D+00 -0.00000000D+00  0.30303039D-08
  0.46816915D-05 -0.00000000D+00  0.00000000D+00 -0.00000000D+00  0.00000000D+00
 -0.13305030D-08 -0.20555698D-05  0.00000000D+00
MO   20     MO 0.0        OCC NO =    0.0000000  ORB. ENERGY =    0.000840
  0.00000000D+00 -0.00000000D+00 -0.00000000D+00 -0.00000000D+00  0.00000000D+00
 -0.00000000D+00 -0.00000000D+00  0.00000000D+00  0.00000000D+00 -0.00000000D+00
  0.00000000D+00 -0.60025382D-05 -0.53993141D-08 -0.00000000D+00  0.50288644D-04
  0.45234881D-07 -0.00000000D+00 -0.33897192D-04 -0.30490226D-07 -0.00000000D+00
  0.10501865D-03  0.94466938D-07  0.00000000D+00  0.00000000D+00  0.00000000D+00
 -0.93353274D-06 -0.83971244D-09 -0.00000000D+00  0.00000000D+00  0.00000000D+00
  0.00000000D+00 -0.33168729D-05 -0.29835379D-08 -0.00000000D+00  0.00000000D+00
 -0.00000000D+00  0.00000000D+00  0.00000000D+00 -0.00000000D+00  0.00000000D+00
  0.00000000D+00 -0.00000000D+00 -0.00000000D+00  0.00000000D+00  0.00000000D+00
 -0.60025303D-05 -0.53993141D-08 -0.00000000D+00  0.50288558D-04  0.45234881D-07
 -0.00000000D+00 -0.33929484D-04 -0.30519112D-07 -0.00000000D+00  0.10512804D-03
  0.94563441D-07 -0.00000000D+00 -0.00000000D+00 -0.00000000D+00  0.93353957D-06
  0.83972099D-09  0.00000000D+00 -0.00000000D+00 -0.00000000D+00 -0.00000000D+00
  0.33168011D-05  0.29834599D-08  0.00000000D+00
MO   21     MO 0.0        OCC NO =    0.0000000  ORB. ENERGY =    0.000840
  0.00000000D+00  0.00000000D+00  0.00000000D+00  0.00000000D+00  0.00000000D+00
 -0.00000000D+00 -0.00000000D+00  0.00000000D+00  0.00000000D+00 -0.00000000D+00
  0.00000000D+00  0.53993141D-08 -0.60025382D-05 -0.00000000D+00 -0.45234881D-07
  0.50288644D-04 -0.00000000D+00  0.30490226D-07 -0.33897192D-04  0.00000000D+00
 -0.94466938D-07  0.10501865D-03  0.00000000D+00  0.00000000D+00  0.00000000D+00
  0.83971244D-09 -0.93353274D-06 -0.00000000D+00  0.00000000D+00  0.00000000D+00
  0.00000000D+00  0.29835379D-08 -0.33168729D-05 -0.00000000D+00  0.00000000D+00
 -0.00000000D+00 -0.00000000D+00 -0.00000000D+00 -0.00000000D+00  0.00000000D+00
  0.00000000D+00 -0.00000000D+00 -0.00000000D+00  0.00000000D+00  0.00000000D+00
  0.53993141D-08 -0.60025303D-05 -0.00000000D+00 -0.45234881D-07  0.50288558D-04
 -0.00000000D+00  0.30519112D-07 -0.33929484D-04  0.00000000D+00 -0.94563441D-07
  0.10512804D-03 -0.00000000D+00 -0.00000000D+00 -0.00000000D+00 -0.83972099D-09
  0.93353957D-06  0.00000000D+00 -0.00000000D+00 -0.00000000D+00 -0.00000000D+00
 -0.29834599D-08  0.33168011D-05  0.00000000D+00
MO   22     MO 0.0        OCC NO =    0.0000000  ORB. ENERGY =    0.000970
 -0.41915128D-04  0.88936124D-04  0.18643102D-02  0.26045898D-01  0.24291467D-02
 -0.37152185D-02 -0.93550665D-03  0.10785984D-02  0.51877775D-03 -0.47054063D-04
  0.30218213D-04  0.00000000D+00 -0.00000000D+00 -0.92073299D-04  0.00000000D+00
 -0.00000000D+00 -0.49517129D-04  0.00000000D+00 -0.00000000D+00  0.35537458D-03
 -0.00000000D+00  0.00000000D+00  0.33951672D-05  0.34048566D-05  0.34048566D-05
  0.00000000D+00  0.00000000D+00  0.00000000D+00  0.13708213D-04  0.13603236D-04
  0.13603236D-04  0.00000000D+00 -0.00000000D+00  0.00000000D+00  0.35458487D-04
 -0.84835071D-04 -0.18602853D-02 -0.26048792D-01 -0.24300621D-02  0.37175223D-02
  0.94016818D-03 -0.10823752D-02 -0.52048711D-03  0.47219871D-04  0.30224892D-04
 -0.00000000D+00  0.00000000D+00 -0.92076702D-04 -0.00000000D+00  0.00000000D+00
 -0.49352914D-04 -0.00000000D+00  0.00000000D+00  0.35504745D-03  0.00000000D+00
 -0.00000000D+00 -0.33949234D-05 -0.34046108D-05 -0.34046108D-05 -0.00000000D+00
 -0.00000000D+00 -0.00000000D+00 -0.13705996D-04 -0.13600975D-04 -0.13600975D-04
  0.00000000D+00  0.00000000D+00 -0.00000000D+00
MO   23     MO 0.0        OCC NO =    0.0000000  ORB. ENERGY =    0.001008
  0.39695580D-02 -0.24049258D-02 -0.25791623D-02  0.18493140D-02  0.60555042D-03
 -0.14747708D-02 -0.34145610D-02  0.27180215D-02  0.12077537D-02 -0.12215344D-03
  0.41440107D-05  0.00000000D+00  0.00000000D+00 -0.19596203D-05 -0.00000000D+00
  0.00000000D+00  0.11668849D-03  0.00000000D+00  0.00000000D+00 -0.22269562D-03
 -0.00000000D+00 -0.00000000D+00 -0.15080180D-06 -0.14464552D-06 -0.14464552D-06
  0.00000000D+00  0.00000000D+00 -0.00000000D+00 -0.13187919D-05 -0.14500850D-05
 -0.14500850D-05 -0.00000000D+00 -0.00000000D+00  0.00000000D+00  0.39696221D-02
 -0.24050686D-02 -0.25827981D-02  0.17908454D-02  0.60484805D-03 -0.14731785D-02
 -0.34151229D-02  0.27182836D-02  0.12074004D-02 -0.12203500D-03 -0.40938883D-05
 -0.00000000D+00 -0.00000000D+00  0.18072977D-05  0.00000000D+00 -0.00000000D+00
 -0.11676465D-03 -0.00000000D+00 -0.00000000D+00  0.22348410D-03  0.00000000D+00
  0.00000000D+00 -0.15636667D-06 -0.15023863D-06 -0.15023863D-06 -0.00000000D+00
 -0.00000000D+00  0.00000000D+00 -0.13422050D-05 -0.14732166D-05 -0.14732166D-05
  0.00000000D+00  0.00000000D+00 -0.00000000D+00
MO   24     MO 0.0        OCC NO =    0.0000000  ORB. ENERGY =    0.001189
 -0.00000000D+00 -0.00000000D+00  0.00000000D+00  0.00000000D+00 -0.00000000D+00
  0.00000000D+00 -0.00000000D+00  0.00000000D+00 -0.00000000D+00  0.00000000D+00
  0.00000000D+00  0.10339731D-06  0.11791427D-07  0.00000000D+00 -0.15004758D-05
 -0.17111332D-06 -0.00000000D+00  0.38532655D-03  0.43942430D-04  0.00000000D+00
 -0.19743362D-03 -0.22515223D-04 -0.00000000D+00 -0.00000000D+00  0.00000000D+00
 -0.92236050D-07 -0.10518549D-07  0.00000000D+00 -0.00000000D+00  0.00000000D+00
 -0.00000000D+00  0.13586158D-05  0.15493582D-06 -0.00000000D+00 -0.00000000D+00
 -0.00000000D+00  0.00000000D+00 -0.00000000D+00 -0.00000000D+00 -0.00000000D+00
 -0.00000000D+00  0.00000000D+00 -0.00000000D+00  0.00000000D+00 -0.00000000D+00
 -0.10347315D-06 -0.11799979D-07  0.00000000D+00  0.15023066D-05  0.17132211D-06