 Molden2AIM, Version 3.1.0 (02/25/2015)           Time: Mon Dec  2 17:31:01 2024
GAUSSIAN             34 MOL ORBITALS     35 PRIMITIVES        2 NUCLEI
  Be   1    (CENTRE  1)   0.00000000  0.00000000  0.00000000  CHARGE =  4.0
  Be   2    (CENTRE  2)   4.54000000  0.00000000  0.00000000  CHARGE =  4.0
CENTRE ASSIGNMENTS    1  1  1  1  1  1  1  1  1  1  1  1  1  1  1  1  1  1  1  1
CENTRE ASSIGNMENTS    1  1  1  1  1  1  1  1  1  1  1  1  1  1  2
TYPE ASSIGNMENTS      1  1  1  1  1  1  1  1  1  1  2  3  4  2  3  4  2  3  4  2
TYPE ASSIGNMENTS      3  4  5  6  7  8  9 10  5  6  7  8  9 10  1
EXPONENTS  0.1000000D-03 0.3000000D-03 0.9000000D-03 0.2700000D-02 0.8100000D-02
EXPONENTS  0.2430000D-01 0.7290000D-01 0.2187000D+00 0.6561000D+00 0.1968300D+01
EXPONENTS  0.1000000D-03 0.1000000D-03 0.1000000D-03 0.3000000D-03 0.3000000D-03
EXPONENTS  0.3000000D-03 0.9000000D-03 0.9000000D-03 0.9000000D-03 0.2700000D-02
EXPONENTS  0.2700000D-02 0.2700000D-02 0.1000000D-03 0.1000000D-03 0.1000000D-03
EXPONENTS  0.1000000D-03 0.1000000D-03 0.1000000D-03 0.3000000D-03 0.3000000D-03
EXPONENTS  0.3000000D-03 0.3000000D-03 0.3000000D-03 0.3000000D-03 0.1000000D+01
MO    1     MO 0.0        OCC NO =    1.0000000  ORB. ENERGY =    0.000076
  0.13957949D-02 -0.11449449D-02 -0.71878330D-03  0.34660467D-03 -0.14111139D-03
  0.24486746D-03 -0.59436942D-04  0.58857712D-04  0.22549003D-05  0.73547880D-05
 -0.90207131D-08  0.00000000D+00  0.00000000D+00  0.15087392D-06  0.00000000D+00
 -0.00000000D+00 -0.46292393D-06  0.00000000D+00  0.00000000D+00  0.29597506D-05
  0.00000000D+00  0.00000000D+00 -0.13033220D-06 -0.12965746D-06 -0.12965746D-06
 -0.00000000D+00 -0.00000000D+00  0.00000000D+00 -0.41776975D-06 -0.41112669D-06
 -0.41112669D-06 -0.00000000D+00 -0.00000000D+00  0.00000000D+00  0.00000000D+00
MO    2     MO 0.0        OCC NO =    0.0000000  ORB. ENERGY =    0.000224
  0.84901823D-05 -0.42477565D-05 -0.24080879D-05  0.34383282D-05  0.10976234D-05
  0.79447678D-05 -0.90750751D-05 -0.45767837D-05  0.13872313D-05 -0.14449020D-05
 -0.16874511D-04  0.00000000D+00  0.00000000D+00  0.17857843D-04 -0.00000000D+00
 -0.00000000D+00 -0.17904717D-04  0.00000000D+00  0.00000000D+00  0.13216721D-04
 -0.00000000D+00  0.00000000D+00 -0.60046719D-09 -0.47180047D-09 -0.47180047D-09
  0.00000000D+00  0.00000000D+00 -0.00000000D+00 -0.21577472D-08 -0.16993935D-08
 -0.16993935D-08  0.00000000D+00 -0.00000000D+00  0.00000000D+00  0.00000000D+00
MO    3     MO 0.0        OCC NO =    0.0000000  ORB. ENERGY =    0.000227
  0.00000000D+00 -0.00000000D+00 -0.00000000D+00  0.00000000D+00 -0.00000000D+00
  0.00000000D+00 -0.00000000D+00 -0.00000000D+00 -0.00000000D+00  0.00000000D+00
 -0.00000000D+00 -0.16943150D-04  0.11503066D-09  0.00000000D+00  0.18321196D-04
 -0.12437524D-09 -0.00000000D+00 -0.17779875D-04  0.11998777D-09  0.00000000D+00
  0.13825580D-04 -0.96502259D-10 -0.00000000D+00 -0.00000000D+00 -0.00000000D+00
  0.84783443D-10 -0.00000000D+00  0.00000000D+00 -0.00000000D+00 -0.00000000D+00
 -0.00000000D+00  0.35138519D-09 -0.00000000D+00 -0.00000000D+00  0.00000000D+00
MO    4     MO 0.0        OCC NO =    0.0000000  ORB. ENERGY =    0.000227
  0.00000000D+00 -0.00000000D+00 -0.00000000D+00  0.00000000D+00 -0.00000000D+00
 -0.00000000D+00  0.00000000D+00 -0.00000000D+00 -0.00000000D+00  0.00000000D+00
 -0.00000000D+00 -0.11503066D-09 -0.16943150D-04  0.00000000D+00  0.12437524D-09
  0.18321196D-04 -0.00000000D+00 -0.11998777D-09 -0.17779875D-04  0.00000000D+00
  0.96502259D-10  0.13825580D-04 -0.00000000D+00 -0.00000000D+00 -0.00000000D+00
  0.00000000D+00  0.84783443D-10 -0.00000000D+00 -0.00000000D+00 -0.00000000D+00
 -0.00000000D+00  0.00000000D+00  0.35138519D-09  0.00000000D+00  0.00000000D+00
MO    5     MO 0.0        OCC NO =    0.0000000  ORB. ENERGY =    0.000324
 -0.45966697D-02  0.27311846D-02  0.17231272D-02 -0.61627225D-03  0.51357039D-03
 -0.44500701D-05  0.22628294D-03 -0.10644441D-03  0.14445390D-03 -0.41771880D-04
 -0.96486494D-07 -0.00000000D+00 -0.00000000D+00  0.50769129D-06  0.00000000D+00
  0.00000000D+00 -0.11365753D-05  0.00000000D+00 -0.00000000D+00  0.66749472D-05
 -0.00000000D+00  0.00000000D+00  0.22306521D-06  0.25334530D-06  0.25334530D-06
  0.00000000D+00 -0.00000000D+00  0.00000000D+00  0.97105689D-06  0.95427104D-06
  0.95427104D-06 -0.00000000D+00  0.00000000D+00 -0.00000000D+00  0.00000000D+00
MO    6     MO 0.0        OCC NO =    0.0000000  ORB. ENERGY =    0.000330
 -0.53308827D-03  0.31450801D-03  0.19906690D-03 -0.70779163D-04  0.59846456D-04
  0.11031963D-05  0.26208329D-04 -0.12280732D-04  0.17098795D-04 -0.49150355D-05
 -0.24043547D-07 -0.00000000D+00 -0.00000000D+00  0.84252688D-07 -0.00000000D+00
  0.00000000D+00 -0.15778170D-06  0.00000000D+00 -0.00000000D+00  0.82268176D-06
 -0.00000000D+00  0.00000000D+00  0.20748008D-06 -0.61823552D-07 -0.61823552D-07
 -0.00000000D+00 -0.00000000D+00  0.00000000D+00 -0.89849326D-07  0.21138084D-06
  0.21138084D-06  0.00000000D+00  0.00000000D+00 -0.00000000D+00  0.00000000D+00
MO    7     MO 0.0        OCC NO =    0.0000000  ORB. ENERGY =    0.000331
  0.00000000D+00 -0.00000000D+00 -0.00000000D+00 -0.00000000D+00  0.00000000D+00
 -0.00000000D+00  0.00000000D+00 -0.00000000D+00 -0.00000000D+00  0.00000000D+00
  0.00000000D+00 -0.72351009D-08  0.29719818D-09  0.00000000D+00  0.12714976D-07
 -0.52226345D-09 -0.00000000D+00 -0.10874447D-07  0.44662115D-09 -0.00000000D+00
  0.35179460D-08 -0.14036692D-09 -0.00000000D+00  0.00000000D+00 -0.00000000D+00
 -0.31271700D-06  0.12847497D-07  0.00000000D+00  0.00000000D+00 -0.00000000D+00
  0.00000000D+00  0.34821828D-06 -0.14306021D-07 -0.00000000D+00  0.00000000D+00
MO    8     MO 0.0        OCC NO =    0.0000000  ORB. ENERGY =    0.000331
  0.00000000D+00 -0.00000000D+00 -0.00000000D+00  0.00000000D+00 -0.00000000D+00
 -0.00000000D+00 -0.00000000D+00  0.00000000D+00 -0.00000000D+00  0.00000000D+00
  0.00000000D+00 -0.29719818D-09 -0.72351009D-08 -0.00000000D+00  0.52226345D-09
  0.12714976D-07  0.00000000D+00 -0.44662115D-09 -0.10874447D-07 -0.00000000D+00
  0.14036692D-09  0.35179460D-08 -0.00000000D+00  0.00000000D+00 -0.00000000D+00
 -0.12847497D-07 -0.31271700D-06 -0.00000000D+00  0.00000000D+00 -0.00000000D+00
 -0.00000000D+00  0.14306021D-07  0.34821828D-06  0.00000000D+00  0.00000000D+00
MO    9     MO 0.0        OCC NO =    0.0000000  ORB. ENERGY =    0.000331
 -0.00000000D+00  0.00000000D+00  0.00000000D+00 -0.00000000D+00  0.00000000D+00
  0.00000000D+00  0.00000000D+00 -0.00000000D+00  0.00000000D+00 -0.00000000D+00
 -0.00000000D+00  0.00000000D+00 -0.00000000D+00  0.00000000D+00 -0.00000000D+00
  0.00000000D+00 -0.00000000D+00  0.00000000D+00  0.00000000D+00  0.00000000D+00
 -0.00000000D+00  0.00000000D+00  0.00000000D+00  0.15655402D-06 -0.15655402D-06
  0.00000000D+00  0.00000000D+00 -0.55520811D-08  0.00000000D+00 -0.17546117D-06
  0.17546117D-06 -0.00000000D+00 -0.00000000D+00  0.62226021D-08  0.00000000D+00
MO   10     MO 0.0        OCC NO =    0.0000000  ORB. ENERGY =    0.000331
 -0.00000000D+00  0.00000000D+00  0.00000000D+00 -0.00000000D+00  0.00000000D+00
  0.00000000D+00  0.00000000D+00 -0.00000000D+00  0.00000000D+00  0.00000000D+00
 -0.00000000D+00 -0.00000000D+00  0.00000000D+00  0.00000000D+00  0.00000000D+00
 -0.00000000D+00 -0.00000000D+00 -0.00000000D+00 -0.00000000D+00  0.00000000D+00
  0.00000000D+00  0.00000000D+00  0.00000000D+00 -0.27760397D-08  0.27760397D-08
 -0.00000000D+00  0.00000000D+00 -0.31310805D-06  0.00000000D+00  0.31113057D-08
 -0.31113057D-08  0.00000000D+00 -0.00000000D+00  0.35092235D-06  0.00000000D+00
MO   11     MO 0.0        OCC NO =    0.0000000  ORB. ENERGY =    0.000827
  0.71390369D-02 -0.56453520D-02 -0.34820712D-02  0.15899113D-02 -0.66115417D-03
  0.10111906D-02 -0.27123336D-03  0.26287559D-03 -0.12786428D-04  0.37697730D-04
 -0.63679165D-06 -0.00000000D+00 -0.00000000D+00  0.46408949D-05  0.00000000D+00
  0.00000000D+00 -0.47233564D-05 -0.00000000D+00 -0.00000000D+00  0.14233908D-04
  0.00000000D+00  0.00000000D+00 -0.28149098D-06 -0.28469102D-06 -0.28469102D-06
  0.00000000D+00  0.00000000D+00 -0.00000000D+00 -0.21497880D-05 -0.21045538D-05
 -0.21045538D-05 -0.00000000D+00 -0.00000000D+00  0.00000000D+00  0.00000000D+00
MO   12     MO 0.0        OCC NO =    0.0000000  ORB. ENERGY =    0.000926
 -0.38769719D-03  0.28670265D-03  0.18847842D-03 -0.12354792D-03  0.14725357D-04
 -0.15917697D-03  0.11969480D-03  0.61761508D-04 -0.27432889D-04  0.20951079D-04
 -0.12541665D-04  0.00000000D+00  0.00000000D+00  0.92246391D-04 -0.00000000D+00
 -0.00000000D+00 -0.70894845D-04  0.00000000D+00  0.00000000D+00  0.49525161D-04
 -0.00000000D+00 -0.00000000D+00  0.14521827D-07  0.15233741D-07  0.15233741D-07
 -0.00000000D+00 -0.00000000D+00  0.00000000D+00  0.13131733D-06  0.12182163D-06
  0.12182163D-06  0.00000000D+00 -0.00000000D+00 -0.00000000D+00  0.00000000D+00
MO   13     MO 0.0        OCC NO =    0.0000000  ORB. ENERGY =    0.000943
  0.00000000D+00 -0.00000000D+00 -0.00000000D+00  0.00000000D+00 -0.00000000D+00
  0.00000000D+00 -0.00000000D+00 -0.00000000D+00  0.00000000D+00 -0.00000000D+00
  0.00000000D+00  0.11750104D-06  0.12523469D-04 -0.00000000D+00 -0.87327120D-06
 -0.93074757D-04  0.00000000D+00  0.70222843D-06  0.74844621D-04 -0.00000000D+00
 -0.46195631D-06 -0.49236119D-04 -0.00000000D+00 -0.00000000D+00 -0.00000000D+00
 -0.42135147D-11 -0.44903010D-09 -0.00000000D+00 -0.00000000D+00 -0.00000000D+00
 -0.00000000D+00  0.56478191D-10  0.60204153D-08 -0.00000000D+00  0.00000000D+00
MO   14     MO 0.0        OCC NO =    0.0000000  ORB. ENERGY =    0.000943
  0.00000000D+00 -0.00000000D+00 -0.00000000D+00  0.00000000D+00 -0.00000000D+00
  0.00000000D+00 -0.00000000D+00  0.00000000D+00 -0.00000000D+00  0.00000000D+00
  0.00000000D+00  0.12523469D-04 -0.11750104D-06 -0.00000000D+00 -0.93074757D-04
  0.87327120D-06  0.00000000D+00  0.74844621D-04 -0.70222843D-06 -0.00000000D+00
 -0.49236119D-04  0.46195631D-06 -0.00000000D+00 -0.00000000D+00 -0.00000000D+00
 -0.44903010D-09  0.42135147D-11 -0.00000000D+00 -0.00000000D+00 -0.00000000D+00
 -0.00000000D+00  0.60204153D-08 -0.56478191D-10  0.00000000D+00  0.00000000D+00
MO   15     MO 0.0        OCC NO =    0.0000000  ORB. ENERGY =    0.001265
  0.21605635D-03 -0.10693474D-03 -0.14097948D-03  0.59455304D-04 -0.37757746D-04
  0.43338287D-05 -0.29327011D-05  0.13322361D-04 -0.86403208D-05  0.42399583D-05
  0.42517158D-07 -0.00000000D+00  0.00000000D+00 -0.37934110D-06  0.00000000D+00
 -0.00000000D+00  0.67484455D-06 -0.00000000D+00  0.00000000D+00 -0.51616426D-06
 -0.00000000D+00  0.00000000D+00 -0.10804571D-06  0.42241978D-07  0.42241978D-07
 -0.00000000D+00  0.00000000D+00 -0.00000000D+00  0.13113299D-05 -0.78566527D-06
 -0.78566527D-06  0.00000000D+00 -0.00000000D+00  0.00000000D+00  0.00000000D+00
MO   16     MO 0.0        OCC NO =    0.0000000  ORB. ENERGY =    0.001268
  0.00000000D+00 -0.00000000D+00  0.00000000D+00 -0.00000000D+00  0.00000000D+00
 -0.00000000D+00  0.00000000D+00 -0.00000000D+00  0.00000000D+00 -0.00000000D+00
  0.00000000D+00  0.31946453D-07 -0.41935590D-09 -0.00000000D+00 -0.27543094D-06
  0.36153237D-08  0.00000000D+00  0.39684844D-06 -0.52083580D-08 -0.00000000D+00
  0.13539267D-06 -0.17809053D-08 -0.00000000D+00 -0.00000000D+00  0.00000000D+00
  0.17348273D-06 -0.22772935D-08 -0.00000000D+00  0.00000000D+00  0.00000000D+00
 -0.00000000D+00 -0.24220236D-05  0.31793693D-07  0.00000000D+00  0.00000000D+00
MO   17     MO 0.0        OCC NO =    0.0000000  ORB. ENERGY =    0.001268
  0.00000000D+00 -0.00000000D+00 -0.00000000D+00  0.00000000D+00 -0.00000000D+00
  0.00000000D+00 -0.00000000D+00  0.00000000D+00 -0.00000000D+00  0.00000000D+00
  0.00000000D+00 -0.41935590D-09 -0.31946453D-07 -0.00000000D+00  0.36153237D-08
  0.27543094D-06  0.00000000D+00 -0.52083580D-08 -0.39684844D-06 -0.00000000D+00
 -0.17809053D-08 -0.13539267D-06 -0.00000000D+00  0.00000000D+00  0.00000000D+00
 -0.22772935D-08 -0.17348273D-06 -0.00000000D+00  0.00000000D+00 -0.00000000D+00
 -0.00000000D+00  0.31793693D-07  0.24220236D-05  0.00000000D+00  0.00000000D+00
MO   18     MO 0.0        OCC NO =    0.0000000  ORB. ENERGY =    0.001276
 -0.00000000D+00  0.00000000D+00 -0.00000000D+00 -0.00000000D+00  0.00000000D+00
 -0.00000000D+00  0.00000000D+00 -0.00000000D+00  0.00000000D+00 -0.00000000D+00
 -0.00000000D+00 -0.00000000D+00  0.00000000D+00  0.00000000D+00  0.00000000D+00
 -0.00000000D+00 -0.00000000D+00 -0.00000000D+00  0.00000000D+00 -0.00000000D+00
 -0.00000000D+00  0.00000000D+00  0.00000000D+00  0.78323474D-08 -0.78323474D-08
 -0.00000000D+00  0.00000000D+00 -0.17246971D-06 -0.00000000D+00 -0.10953392D-06
  0.10953392D-06  0.00000000D+00 -0.00000000D+00  0.24119566D-05  0.00000000D+00
MO   19     MO 0.0        OCC NO =    0.0000000  ORB. ENERGY =    0.001276
  0.00000000D+00 -0.00000000D+00  0.00000000D+00 -0.00000000D+00  0.00000000D+00
  0.00000000D+00  0.00000000D+00  0.00000000D+00 -0.00000000D+00  0.00000000D+00
  0.00000000D+00 -0.00000000D+00  0.00000000D+00 -0.00000000D+00  0.00000000D+00
 -0.00000000D+00  0.00000000D+00 -0.00000000D+00  0.00000000D+00  0.00000000D+00
 -0.00000000D+00 -0.00000000D+00 -0.00000000D+00 -0.86234854D-07  0.86234854D-07
 -0.00000000D+00 -0.00000000D+00 -0.15664696D-07  0.00000000D+00  0.12059783D-05
 -0.12059783D-05  0.00000000D+00  0.00000000D+00  0.21906785D-06  0.00000000D+00
MO   20     MO 0.0        OCC NO =    0.0000000  ORB. ENERGY =    0.001796
 -0.72531808D-02 -0.69697897D-03  0.79564142D-02 -0.25975246D-02  0.19749180D-02
 -0.24113984D-03  0.84185020D-03 -0.41540010D-03  0.49441028D-03 -0.14919205D-03
  0.15173457D-06  0.00000000D+00  0.00000000D+00 -0.12587027D-05 -0.00000000D+00
 -0.00000000D+00  0.50539516D-06  0.00000000D+00  0.00000000D+00  0.20920847D-04
 -0.00000000D+00  0.00000000D+00  0.24931818D-06  0.25153998D-06  0.25153998D-06
 -0.00000000D+00 -0.00000000D+00 -0.00000000D+00  0.37420349D-05  0.37116872D-05
  0.37116872D-05  0.00000000D+00  0.00000000D+00  0.00000000D+00  0.00000000D+00
MO   21     MO 0.0        OCC NO =    0.0000000  ORB. ENERGY =    0.003025
  0.25100041D-03  0.27379379D-03 -0.75756864D-03  0.15468610D-03 -0.17306350D-03
 -0.10328505D-03  0.17720094D-03  0.17295821D-03 -0.61396676D-04  0.49860962D-04
  0.67069134D-05 -0.00000000D+00 -0.00000000D+00 -0.76373234D-04  0.00000000D+00
  0.00000000D+00  0.38658907D-03 -0.00000000D+00 -0.00000000D+00 -0.20957531D-03
  0.00000000D+00  0.00000000D+00 -0.82235800D-08 -0.83888997D-08 -0.83888997D-08
  0.00000000D+00 -0.00000000D+00  0.00000000D+00 -0.16628272D-06 -0.16397000D-06
 -0.16397000D-06 -0.00000000D+00 -0.00000000D+00 -0.00000000D+00  0.00000000D+00
MO   22     MO 0.0        OCC NO =    0.0000000  ORB. ENERGY =    0.003109
 -0.00000000D+00 -0.00000000D+00  0.00000000D+00 -0.00000000D+00  0.00000000D+00
 -0.00000000D+00 -0.00000000D+00 -0.00000000D+00  0.00000000D+00 -0.00000000D+00
 -0.00000000D+00 -0.11980436D-07 -0.66401654D-05  0.00000000D+00  0.13699398D-06
  0.75928789D-04 -0.00000000D+00 -0.70498370D-06 -0.39073672D-03  0.00000000D+00
  0.41405610D-06  0.22948863D-03  0.00000000D+00  0.00000000D+00  0.00000000D+00
  0.25372315D-12  0.14057688D-09  0.00000000D+00  0.00000000D+00  0.00000000D+00
  0.00000000D+00 -0.35286684D-11 -0.19559156D-08 -0.00000000D+00  0.00000000D+00
MO   23     MO 0.0        OCC NO =    0.0000000  ORB. ENERGY =    0.003109
 -0.00000000D+00 -0.00000000D+00  0.00000000D+00 -0.00000000D+00  0.00000000D+00
 -0.00000000D+00 -0.00000000D+00 -0.00000000D+00  0.00000000D+00 -0.00000000D+00
 -0.00000000D+00 -0.66401654D-05  0.11980436D-07  0.00000000D+00  0.75928789D-04
 -0.13699398D-06 -0.00000000D+00 -0.39073672D-03  0.70498370D-06  0.00000000D+00
  0.22948863D-03 -0.41405610D-06  0.00000000D+00  0.00000000D+00  0.00000000D+00
  0.14057688D-09 -0.25372315D-12  0.00000000D+00  0.00000000D+00  0.00000000D+00
  0.00000000D+00 -0.19559156D-08  0.35286684D-11 -0.00000000D+00  0.00000000D+00
MO   24     MO 0.0        OCC NO =    0.0000000  ORB. ENERGY =    0.003909
 -0.54392642D-02 -0.81802722D-02  0.23156831D-01 -0.90906051D-02  0.36333945D-02
 -0.42503968D-02  0.14491783D-02 -0.12344666D-02  0.26210359D-03 -0.21508906D-03
  0.33279340D-06  0.00000000D+00  0.00000000D+00 -0.41207571D-05 -0.00000000D+00
 -0.00000000D+00  0.28011114D-04  0.00000000D+00  0.00000000D+00 -0.68717741D-04
 -0.00000000D+00 -0.00000000D+00  0.17920482D-06  0.17891141D-06  0.17891141D-06
 -0.00000000D+00 -0.00000000D+00 -0.00000000D+00  0.38372792D-05  0.38412366D-05
  0.38412366D-05  0.00000000D+00  0.00000000D+00  0.00000000D+00  0.00000000D+00
MO   25     MO 0.0        OCC NO =    0.0000000  ORB. ENERGY =    0.009405
 -0.24792587D-02 -0.53452898D-02  0.18193784D-01 -0.23704642D-01  0.12537640D-01
 -0.51400766D-02  0.58050503D-02 -0.16888400D-02  0.19409756D-02 -0.50591704D-03
 -0.22108174D-05  0.00000000D+00 -0.00000000D+00  0.27065430D-04 -0.00000000D+00
  0.00000000D+00 -0.21308670D-03  0.00000000D+00 -0.00000000D+00  0.90927877D-03
 -0.00000000D+00 -0.00000000D+00  0.81335669D-07  0.81352624D-07  0.81352624D-07
 -0.00000000D+00 -0.00000000D+00  0.00000000D+00  0.19124908D-05  0.19122675D-05
  0.19122675D-05  0.00000000D+00  0.00000000D+00 -0.00000000D+00  0.00000000D+00
MO   26     MO 0.0        OCC NO =    0.0000000  ORB. ENERGY =    0.010303
  0.00000000D+00  0.00000000D+00 -0.00000000D+00  0.00000000D+00 -0.00000000D+00
  0.00000000D+00 -0.00000000D+00  0.00000000D+00 -0.00000000D+00  0.00000000D+00
 -0.00000000D+00 -0.13768329D-07  0.32028618D-05  0.00000000D+00  0.16804108D-06
 -0.39090709D-04 -0.00000000D+00 -0.13276291D-05  0.30884064D-03  0.00000000D+00
  0.58186476D-05 -0.13535660D-02 -0.00000000D+00 -0.00000000D+00 -0.00000000D+00
 -0.24802150D-12  0.57575199D-10 -0.00000000D+00 -0.00000000D+00 -0.00000000D+00
 -0.00000000D+00  0.33922006D-11 -0.78841371D-09  0.00000000D+00  0.00000000D+00
MO   27     MO 0.0        OCC NO =    0.0000000  ORB. ENERGY =    0.010303
  0.00000000D+00  0.00000000D+00 -0.00000000D+00  0.00000000D+00 -0.00000000D+00
  0.00000000D+00 -0.00000000D+00  0.00000000D+00 -0.00000000D+00  0.00000000D+00
 -0.00000000D+00  0.32028618D-05  0.13768329D-07  0.00000000D+00 -0.39090709D-04
 -0.16804108D-06 -0.00000000D+00  0.30884064D-03  0.13276291D-05  0.00000000D+00
 -0.13535660D-02 -0.58186476D-05 -0.00000000D+00 -0.00000000D+00 -0.00000000D+00
  0.57575199D-10  0.24802150D-12 -0.00000000D+00 -0.00000000D+00 -0.00000000D+00
 -0.00000000D+00 -0.78841371D-09 -0.33922006D-11 -0.00000000D+00  0.00000000D+00
MO   28     MO 0.0        OCC NO =    0.0000000  ORB. ENERGY =    0.010675
  0.21693430D-02  0.47331852D-02 -0.16409857D-01  0.23480309D-01 -0.15369364D-01
  0.29499236D-02 -0.35326699D-02  0.39118349D-02 -0.28733717D-02  0.11678124D-02
 -0.23950215D-05 -0.00000000D+00 -0.00000000D+00  0.29128312D-04  0.00000000D+00
  0.00000000D+00 -0.22886393D-03 -0.00000000D+00 -0.00000000D+00  0.99773382D-03
  0.00000000D+00  0.00000000D+00 -0.71228054D-07 -0.71245756D-07 -0.71245756D-07
  0.00000000D+00  0.00000000D+00  0.00000000D+00 -0.16769758D-05 -0.16767360D-05
 -0.16767360D-05 -0.00000000D+00 -0.00000000D+00  0.00000000D+00  0.00000000D+00
MO   29     MO 0.0        OCC NO =    0.0000000  ORB. ENERGY =    0.030163
 -0.17802559D-02 -0.39329952D-02  0.14767603D-01 -0.32869521D-01  0.69619678D-01
 -0.55754431D-01  0.22962895D-01 -0.15792370D-01  0.62754344D-02 -0.32238724D-02
 -0.23672070D-06 -0.00000000D+00 -0.00000000D+00  0.27850610D-05 -0.00000000D+00
  0.00000000D+00 -0.21376281D-04  0.00000000D+00 -0.00000000D+00  0.10101516D-03
  0.00000000D+00  0.00000000D+00  0.58824148D-07  0.58852951D-07  0.58852951D-07
 -0.00000000D+00 -0.00000000D+00  0.00000000D+00  0.13708558D-05  0.13704624D-05
  0.13704624D-05  0.00000000D+00  0.00000000D+00 -0.00000000D+00  0.00000000D+00
MO   30     MO 0.0        OCC NO =    0.0000000  ORB. ENERGY =    0.103225
 -0.89892086D-03 -0.19209813D-02  0.73088261D-02 -0.17907208D-01  0.58803875D-01
 -0.14880198D+00  0.12871120D+00 -0.60560665D-01  0.45575739D-01 -0.15617898D-01
  0.12851918D-06  0.00000000D+00  0.00000000D+00 -0.14926475D-05 -0.00000000D+00
 -0.00000000D+00  0.11296246D-04  0.00000000D+00  0.00000000D+00 -0.54507222D-04
 -0.00000000D+00 -0.00000000D+00  0.29867466D-07  0.29837693D-07  0.29837693D-07
 -0.00000000D+00 -0.00000000D+00 -0.00000000D+00  0.68259882D-06  0.68300453D-06
  0.68300453D-06  0.00000000D+00  0.00000000D+00 -0.00000000D+00  0.00000000D+00
MO   31     MO 0.0        OCC NO =    0.0000000  ORB. ENERGY =    0.304001
 -0.48885890D-03 -0.10280741D-02  0.39091169D-02 -0.95613587D-02  0.34036361D-01
 -0.12546839D+00  0.33026573D+00 -0.27978278D+00  0.10296806D+00 -0.51354541D-01
 -0.16419451D-07  0.00000000D+00  0.00000000D+00  0.18984501D-06 -0.00000000D+00
 -0.00000000D+00 -0.14255725D-05  0.00000000D+00  0.00000000D+00  0.68265084D-05
 -0.00000000D+00 -0.00000000D+00  0.16256292D-07  0.16258947D-07  0.16258947D-07
 -0.00000000D+00 -0.00000000D+00 -0.00000000D+00  0.36926339D-06  0.36922726D-06
  0.36922726D-06  0.00000000D+00  0.00000000D+00 -0.00000000D+00  0.00000000D+00
MO   32     MO 0.0        OCC NO =    0.0000000  ORB. ENERGY =    0.984449
  0.26869517D-03  0.56042275D-03 -0.21275412D-02  0.51440969D-02 -0.18226292D-01
  0.72490641D-01 -0.27919419D+00  0.74277349D+00 -0.61148460D+00  0.15496228D+00
  0.63262588D-08 -0.00000000D+00 -0.00000000D+00 -0.73109004D-07  0.00000000D+00
  0.00000000D+00  0.54958176D-06 -0.00000000D+00 -0.00000000D+00 -0.26593127D-05
  0.00000000D+00  0.00000000D+00 -0.89414755D-08 -0.89429568D-08 -0.89429568D-08
  0.00000000D+00  0.00000000D+00 -0.00000000D+00 -0.20238922D-06 -0.20236906D-06
 -0.20236906D-06 -0.00000000D+00 -0.00000000D+00 -0.00000000D+00  0.00000000D+00
MO   33     MO 0.0        OCC NO =    0.0000000  ORB. ENERGY =    3.010290
 -0.14369484D-03 -0.29876817D-03  0.11333006D-02 -0.27233862D-02  0.95455667D-02
 -0.37724400D-01  0.15473208D+00 -0.59052238D+00  0.15250149D+01 -0.96704855D+00
 -0.87990617D-09  0.00000000D+00  0.00000000D+00  0.10166691D-07 -0.00000000D+00
 -0.00000000D+00 -0.76434432D-07  0.00000000D+00  0.00000000D+00  0.37076168D-06
 -0.00000000D+00 -0.00000000D+00  0.47833824D-08  0.47836145D-08  0.47836145D-08
  0.00000000D+00 -0.00000000D+00  0.00000000D+00  0.10811650D-06  0.10811334D-06
  0.10811334D-06  0.00000000D+00  0.00000000D+00  0.00000000D+00  0.00000000D+00
MO   34     MO 0.0        OCC NO =    0.0000000  ORB. ENERGY =   10.819000
 -0.75890767D-04 -0.15757500D-03  0.59747310D-03 -0.14312104D-02  0.49803163D-02
 -0.19406403D-01  0.78347546D-01 -0.31314359D+00  0.11094776D+01 -0.23397075D+01
 -0.11374779D-09  0.00000000D+00  0.00000000D+00  0.13135376D-08 -0.00000000D+00
 -0.00000000D+00 -0.98723271D-08  0.00000000D+00  0.00000000D+00  0.47900212D-07
 -0.00000000D+00 -0.00000000D+00  0.25266166D-08  0.25266478D-08  0.25266478D-08
  0.00000000D+00 -0.00000000D+00 -0.00000000D+00  0.57073816D-07  0.57073411D-07
  0.57073411D-07 -0.00000000D+00  0.00000000D+00 -0.00000000D+00  0.00000000D+00
END DATA
 THE  HF ENERGY =    -29.322032289624 THE VIRIAL(-V/T)=   2.00576072


 $MOSPIN $END
 3 3 3 3 3 3 3 3 3 3 3 3 3 3 3 3 3 3 3 3 3 3 3 3 3 3 3 3 3 3 3 3 3 3


