[Molden Format]
[Title]
 Molden2AIM, Version 3.1.0 (02/25/2015)           Time: Mon Dec  2 17:24:14 2024

[Atoms] AU
BE       1       4     0.00000000     0.00000000     0.00000000
BE       2       4     4.54000000     0.00000000     0.00000000
[GTO]
    1 0
 S   6 1.0
    0.1682800000D+04      0.2285740532D-02
    0.2517150000D+03      0.1759380410D-01
    0.5741160000D+02      0.8633152009D-01
    0.1651710000D+02      0.2818350656D+00
    0.4853640000D+01      0.6405941491D+00
    0.6268630000D+00      0.1444670336D+00
 S   3 1.0
    0.8309380000D+01      0.1086210323D+00
    0.1740750000D+01      0.9273012759D+00
    0.4858160000D+00     -0.2971690884D-02
 P   3 1.0
    0.8309380000D+01      0.3613440323D-01
    0.1740750000D+01      0.2169580194D+00
    0.4858160000D+00      0.8418390753D+00
 S   1 1.0
    0.1636130000D+00      0.1000000000D+01
 P   1 1.0
    0.1636130000D+00      0.1000000000D+01
 S   1 1.0
    0.5672850000D-01      0.1000000000D+01
 P   1 1.0
    0.5672850000D-01      0.1000000000D+01
 S   1 1.0
    0.2070000000D-01      0.1000000000D+01
 P   1 1.0
    0.2070000000D-01      0.1000000000D+01
 D   1 1.0
    0.2550000000D+00      0.1000000000D+01

    2 0
 S   6 1.0
    0.1682800000D+04      0.2285740532D-02
    0.2517150000D+03      0.1759380410D-01
    0.5741160000D+02      0.8633152009D-01
    0.1651710000D+02      0.2818350656D+00
    0.4853640000D+01      0.6405941491D+00
    0.6268630000D+00      0.1444670336D+00
 S   3 1.0
    0.8309380000D+01      0.1086210323D+00
    0.1740750000D+01      0.9273012759D+00
    0.4858160000D+00     -0.2971690884D-02
 P   3 1.0
    0.8309380000D+01      0.3613440323D-01
    0.1740750000D+01      0.2169580194D+00
    0.4858160000D+00      0.8418390753D+00
 S   1 1.0
    0.1636130000D+00      0.1000000000D+01
 P   1 1.0
    0.1636130000D+00      0.1000000000D+01
 S   1 1.0
    0.5672850000D-01      0.1000000000D+01
 P   1 1.0
    0.5672850000D-01      0.1000000000D+01
 S   1 1.0
    0.2070000000D-01      0.1000000000D+01
 P   1 1.0
    0.2070000000D-01      0.1000000000D+01
 D   1 1.0
    0.2550000000D+00      0.1000000000D+01


[MO]
 Ene=         -4.11527000
 Spin= Alpha
 Occup=        2.00000000
    1        0.0005199300
    2        0.0004194900
    3       -0.0000965700
    4        0.0000000000
    5       -0.0000000000
    6        0.0002016400
    7        0.0012880800
    8       -0.0000000000
    9        0.0000000000
   10       -0.0027641300
   11       -0.0014449200
   12        0.0000000000
   13       -0.0000000000
   14        0.0082239600
   15        0.0025926700
   16       -0.0000000000
   17        0.0000000000
   18        0.0011763600
   19        0.0000376300
   20        0.0000376300
   21       -0.0000000000
   22       -0.0000000000
   23       -0.0000000000
   24        0.5961691700
   25        0.4348092900
   26        0.0002002700
   27       -0.0000000000
   28        0.0000000000
   29        0.0343412800
   30        0.0009252600
   31        0.0000000000
   32       -0.0000000000
   33        0.0053489600
   34       -0.0014278900
   35       -0.0000000000
   36        0.0000000000
   37       -0.0093179500
   38        0.0029183400
   39        0.0000000000
   40       -0.0000000000
   41       -0.0132007000
   42       -0.0125949800
   43       -0.0125949800
   44       -0.0000000000
   45        0.0000000000
   46       -0.0000000000
 Ene=         -4.08744000
 Spin= Alpha
 Occup=        2.00000000
    1       -0.5958350300
    2       -0.4348148600
    3       -0.0001729300
    4       -0.0000000000
    5       -0.0000000000
    6       -0.0354701000
    7        0.0012554500
    8        0.0000000000
    9        0.0000000000
   10       -0.0053251800
   11       -0.0016302200
   12       -0.0000000000
   13       -0.0000000000
   14        0.0091855900
   15        0.0029497500
   16        0.0000000000
   17        0.0000000000
   18        0.0135789600
   19        0.0129230200
   20        0.0129230200
   21        0.0000000000
   22        0.0000000000
   23       -0.0000000000
   24        0.0005876700
   25        0.0003870100
   26       -0.0001027700
   27        0.0000000000
   28       -0.0000000000
   29       -0.0001440200
   30        0.0013918000
   31       -0.0000000000
   32       -0.0000000000
   33        0.0028281500
   34       -0.0014961400
   35        0.0000000000
   36       -0.0000000000
   37       -0.0081300600
   38        0.0025462700
   39       -0.0000000000
   40       -0.0000000000
   41       -0.0012722500
   42       -0.0000580700
   43       -0.0000580700
   44        0.0000000000
   45       -0.0000000000
   46        0.0000000000
 Ene=         -0.31352400
 Spin= Alpha
 Occup=        2.00000000
    1        0.0829280000
    2        0.1229426300
    3       -0.0626980000
    4       -0.0000000000
    5       -0.0000000000
    6       -0.4047336400
    7       -0.0921277100
    8        0.0000000000
    9       -0.0000000000
   10       -0.1623015800
   11       -0.0102482100
   12       -0.0000000000
   13       -0.0000000000
   14        0.0875662500
   15        0.0213638800
   16        0.0000000000
   17        0.0000000000
   18       -0.0151576900
   19        0.0103424400
   20        0.0103424400
   21       -0.0000000000
   22       -0.0000000000
   23       -0.0000000000
   24        0.0883133400
   25        0.1312908000
   26        0.0625340800
   27       -0.0000000000
   28       -0.0000000000
   29       -0.4425184400
   30        0.0900877500
   31        0.0000000000
   32       -0.0000000000
   33       -0.1569497500
   34        0.0234495700
   35        0.0000000000
   36       -0.0000000000
   37       -0.1661835600
   38        0.0361353300
   39       -0.0000000000
   40        0.0000000000
   41       -0.0132559800
   42        0.0119012400
   43        0.0119012400
   44        0.0000000000
   45        0.0000000000
   46        0.0000000000
 Ene=         -0.20277800
 Spin= Alpha
 Occup=        2.00000000
    1        0.0811619400
    2        0.1246246700
    3        0.0477638800
    4       -0.0000000000
    5       -0.0000000000
    6       -0.4005292400
    7        0.0763182200
    8        0.0000000000
    9       -0.0000000000
   10       -0.5445613500
   11       -0.0567305900
   12       -0.0000000000
   13        0.0000000000
   14        0.9064725500
   15        0.3155109200
   16        0.0000000000
   17        0.0000000000
   18        0.0106495300
   19        0.0073336700
   20        0.0073336700
   21        0.0000000000
   22       -0.0000000000
   23       -0.0000000000
   24       -0.0753857200
   25       -0.1136860100
   26        0.0728634900
   27        0.0000000000
   28        0.0000000000
   29        0.4084352300
   30        0.1332753600
   31        0.0000000000
   32       -0.0000000000
   33        0.3280570800
   34       -0.1230761400
   35       -0.0000000000
   36        0.0000000000
   37       -0.6000863000
   38        0.5726091800
   39        0.0000000000
   40       -0.0000000000
   41       -0.0058195300
   42        0.0022080200
   43        0.0022080200
   44       -0.0000000000
   45       -0.0000000000
   46       -0.0000000000
 Ene=         -0.15417600
 Spin= Alpha
 Occup=        0.00000000
    1       -0.0000000000
    2       -0.0000000000
    3       -0.0000000000
    4        0.0181817700
    5       -0.0021201000
    6        0.0000000000
    7       -0.0000000000
    8        0.1003938500
    9       -0.0117064900
   10       -0.0000000000
   11       -0.0000000000
   12       -0.0673789300
   13        0.0078567600
   14        0.0000000000
   15        0.0000000000
   16       -0.3634190300
   17        0.0423767000
   18        0.0000000000
   19        0.0000000000
   20        0.0000000000
   21        0.0127492800
   22       -0.0014866400
   23        0.0000000000
   24        0.0000000000
   25        0.0000000000
   26       -0.0000000000
   27        0.0173531100
   28       -0.0020234700
   29       -0.0000000000
   30        0.0000000000
   31        0.2470662400
   32       -0.0288093100
   33       -0.0000000000
   34       -0.0000000000
   35       -0.6265889400
   36        0.0730637900
   37       -0.0000000000
   38        0.0000000000
   39        1.6190694300
   40       -0.1887925900
   41        0.0000000000
   42        0.0000000000
   43        0.0000000000
   44       -0.0029553300
   45        0.0003446100
   46       -0.0000000000
 Ene=         -0.15417600
 Spin= Alpha
 Occup=        0.00000000
    1       -0.0000000000
    2       -0.0000000000
    3       -0.0000000000
    4       -0.0021201000
    5       -0.0181817700
    6        0.0000000000
    7       -0.0000000000
    8       -0.0117064900
    9       -0.1003938500
   10       -0.0000000000
   11       -0.0000000000
   12        0.0078567600
   13        0.0673789300
   14        0.0000000000
   15        0.0000000000
   16        0.0423767000
   17        0.3634190300
   18        0.0000000000
   19        0.0000000000
   20        0.0000000000
   21       -0.0014866400
   22       -0.0127492800
   23        0.0000000000
   24        0.0000000000
   25        0.0000000000
   26       -0.0000000000
   27       -0.0020234700
   28       -0.0173531100
   29       -0.0000000000
   30        0.0000000000
   31       -0.0288093100
   32       -0.2470662400
   33        0.0000000000
   34       -0.0000000000
   35        0.0730637900
   36        0.6265889400
   37       -0.0000000000
   38        0.0000000000
   39       -0.1887925900
   40       -1.6190694300
   41        0.0000000000
   42        0.0000000000
   43        0.0000000000
   44        0.0003446100
   45        0.0029553300
   46       -0.0000000000
 Ene=         -0.15085600
 Spin= Alpha
 Occup=        0.00000000
    1       -0.0281021000
    2       -0.0374417600
    3       -0.0529222300
    4       -0.0000000000
    5        0.0000000000
    6        0.2248249900
    7       -0.0787524200
    8       -0.0000000000
    9        0.0000000000
   10       -0.9283747700
   11       -0.4418150800
   12        0.0000000000
   13       -0.0000000000
   14       10.0752161800
   15        3.1686089900
   16        0.0000000000
   17       -0.0000000000
   18        0.0101672800
   19        0.0258404900
   20        0.0258404900
   21       -0.0000000000
   22        0.0000000000
   23       -0.0000000000
   24        0.0305951200
   25        0.0479207200
   26       -0.0100521300
   27       -0.0000000000
   28        0.0000000000
   29       -0.1995279600
   30        0.1614286200
   31       -0.0000000000
   32        0.0000000000
   33        0.4754710300
   34       -0.8997701700
   35        0.0000000000
   36       -0.0000000000
   37       -9.1204740600
   38        4.5415964900
   39       -0.0000000000
   40        0.0000000000
   41        0.0199812000
   42       -0.0039494100
   43       -0.0039494100
   44        0.0000000000
   45       -0.0000000000
   46        0.0000000000
 Ene=         -0.12222000
 Spin= Alpha
 Occup=        0.00000000
    1       -0.0020677200
    2        0.0015705100
    3       -0.0824725700
    4       -0.0000000000
    5        0.0000000000
    6        0.0343791200
    7       -0.0852407300
    8       -0.0000000000
    9       -0.0000000000
   10        0.4563129400
   11        0.1846276500
   12        0.0000000000
   13        0.0000000000
   14      -12.0201826400
   15       -4.0043488700
   16       -0.0000000000
   17       -0.0000000000
   18        0.0154277200
   19        0.0178683800
   20        0.0178683800
   21       -0.0000000000
   22        0.0000000000
   23        0.0000000000
   24        0.0107625300
   25        0.0370099600
   26        0.0717743300
   27       -0.0000000000
   28        0.0000000000
   29        0.2331214900
   30        0.0835146200
   31       -0.0000000000
   32        0.0000000000
   33       -2.2016826800
   34        0.4575927200
   35       -0.0000000000
   36       -0.0000000000
   37       13.5857465600
   38       -4.8109351700
   39        0.0000000000
   40        0.0000000000
   41        0.0491259700
   42        0.0957280100
   43        0.0957280100
   44        0.0000000000
   45        0.0000000000
   46       -0.0000000000
 Ene=         -0.09795390
 Spin= Alpha
 Occup=        0.00000000
    1       -0.0149224000
    2       -0.0352216600
    3       -0.0988759100
    4       -0.0000000000
    5       -0.0000000000
    6       -0.1094515300
    7       -0.2831077600
    8       -0.0000000000
    9       -0.0000000000
   10        1.4332653600
   11        0.4770127700
   12        0.0000000000
   13        0.0000000000
   14       -4.3804979900
   15       -2.5275893400
   16       -0.0000000000
   17       -0.0000000000
   18       -0.0371065200
   19       -0.0553604600
   20       -0.0553604600
   21       -0.0000000000
   22       -0.0000000000
   23       -0.0000000000
   24       -0.0245466900
   25       -0.0468606900
   26        0.1290293900
   27       -0.0000000000
   28       -0.0000000000
   29        0.0197376700
   30        0.2041201700
   31       -0.0000000000
   32       -0.0000000000
   33        0.4235726900
   34        0.4056814100
   35       -0.0000000000
   36       -0.0000000000
   37        3.5740030000
   38       -0.7828015500
   39        0.0000000000
   40        0.0000000000
   41       -0.0374940300
   42       -0.0357299100
   43       -0.0357299100
   44        0.0000000000
   45        0.0000000000
   46       -0.0000000000
 Ene=         -0.09332480
 Spin= Alpha
 Occup=        0.00000000
    1       -0.0000000000
    2       -0.0000000000
    3       -0.0000000000
    4        0.1499350700
    5       -0.0000420900
    6       -0.0000000000
    7       -0.0000000000
    8        0.2620531900
    9       -0.0000735700
   10        0.0000000000
   11       -0.0000000000
   12        0.0840581800
   13       -0.0000236000
   14       -0.0000000000
   15       -0.0000000000
   16        0.8255890300
   17       -0.0002317700
   18       -0.0000000000
   19       -0.0000000000
   20       -0.0000000000
   21        0.0140347700
   22       -0.0000039400
   23        0.0000000000
   24       -0.0000000000
   25       -0.0000000000
   26        0.0000000000
   27        0.1678570300
   28       -0.0000471200
   29        0.0000000000
   30        0.0000000000
   31        0.1195718700
   32       -0.0000335700
   33        0.0000000000
   34        0.0000000000
   35        0.6811064900
   36       -0.0001912100
   37        0.0000000000
   38       -0.0000000000
   39       -1.1192224200
   40        0.0003142100
   41       -0.0000000000
   42       -0.0000000000
   43       -0.0000000000
   44       -0.0256359600
   45        0.0000072000
   46        0.0000000000
 Ene=         -0.09332480
 Spin= Alpha
 Occup=        0.00000000
    1        0.0000000000
    2        0.0000000000
    3        0.0000000000
    4       -0.0000420900
    5       -0.1499350700
    6       -0.0000000000
    7        0.0000000000
    8       -0.0000735700
    9       -0.2620531900
   10       -0.0000000000
   11       -0.0000000000
   12       -0.0000236000
   13       -0.0840581800
   14       -0.0000000000
   15        0.0000000000
   16       -0.0002317700
   17       -0.8255890300
   18        0.0000000000
   19        0.0000000000
   20       -0.0000000000
   21       -0.0000039400
   22       -0.0140347700
   23       -0.0000000000
   24        0.0000000000
   25        0.0000000000
   26       -0.0000000000
   27       -0.0000471200
   28       -0.1678570300
   29       -0.0000000000
   30       -0.0000000000
   31       -0.0000335700
   32       -0.1195718700
   33       -0.0000000000
   34       -0.0000000000
   35       -0.0001912100
   36       -0.6811064900
   37        0.0000000000
   38       -0.0000000000
   39        0.0003142100
   40        1.1192224200
   41        0.0000000000
   42        0.0000000000
   43        0.0000000000
   44        0.0000072000
   45        0.0256359600
   46       -0.0000000000
 Ene=         -0.08166360
 Spin= Alpha
 Occup=        0.00000000
    1       -0.0119548400
    2       -0.0107372000
    3       -0.1377652700
    4       -0.0000000000
    5       -0.0000000000
    6        0.2134160100
    7       -0.0836898000
    8       -0.0000000000
    9        0.0000000000
   10       -1.0783051900
   11       -0.8542752000
   12       -0.0000000000
   13       -0.0000000000
   14       11.2922625200
   15        5.0403893300
   16        0.0000000000
   17        0.0000000000
   18       -0.0066063200
   19        0.0489838300
   20        0.0489838300
   21       -0.0000000000
   22       -0.0000000000
   23       -0.0000000000
   24       -0.0155209300
   25       -0.0326341400
   26        0.1543105400
   27       -0.0000000000
   28       -0.0000000000
   29       -0.0340086000
   30        0.0824064500
   31       -0.0000000000
   32       -0.0000000000
   33        1.4654067800
   34        0.2520613000
   35       -0.0000000000
   36       -0.0000000000
   37      -11.9950872200
   38        2.8815198600
   39       -0.0000000000
   40       -0.0000000000
   41       -0.0401790000
   42       -0.0321981700
   43       -0.0321981700
   44        0.0000000000
   45        0.0000000000
   46       -0.0000000000
 Ene=         -0.06424640
 Spin= Alpha
 Occup=        0.00000000
    1        0.0000000000
    2        0.0000000000
    3       -0.0000000000
    4        0.0490456500
    5        0.0004231500
    6        0.0000000000
    7       -0.0000000000
    8       -0.1248650700
    9       -0.0010772900
   10       -0.0000000000
   11       -0.0000000000
   12        0.6710518900
   13        0.0057896000
   14        0.0000000000
   15        0.0000000000
   16       -1.8399652800
   17       -0.0158745600
   18        0.0000000000
   19        0.0000000000
   20        0.0000000000
   21        0.0203801400
   22        0.0001758300
   23        0.0000000000
   24       -0.0000000000
   25       -0.0000000000
   26        0.0000000000
   27        0.1254796500
   28        0.0010825900
   29       -0.0000000000
   30       -0.0000000000
   31        0.1747437200
   32        0.0015076300
   33        0.0000000000
   34        0.0000000000
   35        0.1779896100
   36        0.0015356300
   37       -0.0000000000
   38        0.0000000000
   39        0.8767295100
   40        0.0075641100
   41       -0.0000000000
   42       -0.0000000000
   43       -0.0000000000
   44        0.0031551500
   45        0.0000272200
   46        0.0000000000
 Ene=         -0.06424640
 Spin= Alpha
 Occup=        0.00000000
    1       -0.0000000000
    2       -0.0000000000
    3       -0.0000000000
    4       -0.0004231500
    5        0.0490456500
    6       -0.0000000000
    7        0.0000000000
    8        0.0010772900
    9       -0.1248650700
   10        0.0000000000
   11       -0.0000000000
   12       -0.0057896000
   13        0.6710518900
   14       -0.0000000000
   15       -0.0000000000
   16        0.0158745600
   17       -1.8399652800
   18       -0.0000000000
   19       -0.0000000000
   20       -0.0000000000
   21       -0.0001758300
   22        0.0203801400
   23       -0.0000000000
   24        0.0000000000
   25        0.0000000000
   26        0.0000000000
   27       -0.0010825900
   28        0.1254796500
   29        0.0000000000
   30        0.0000000000
   31       -0.0015076300
   32        0.1747437200
   33       -0.0000000000
   34       -0.0000000000
   35       -0.0015356300
   36        0.1779896100
   37        0.0000000000
   38       -0.0000000000
   39       -0.0075641100
   40        0.8767295100
   41       -0.0000000000
   42        0.0000000000
   43        0.0000000000
   44       -0.0000272200
   45        0.0031551500
   46        0.0000000000
 Ene=         -0.02758760
 Spin= Alpha
 Occup=        0.00000000
    1        0.0338374700
    2        0.0660077300
    3        0.0647098400
    4        0.0000000000
    5       -0.0000000000
    6       -0.0082328300
    7       -0.0918617300
    8        0.0000000000
    9       -0.0000000000
   10       -1.8592935800
   11        0.5093213800
   12        0.0000000000
   13       -0.0000000000
   14       14.8511071300
   15        3.8801556700
   16        0.0000000000
   17        0.0000000000
   18        0.0426048100
   19        0.0574362800
   20        0.0574362800
   21       -0.0000000000
   22        0.0000000000
   23       -0.0000000000
   24       -0.0137453200
   25       -0.0273158000
   26       -0.0000378900
   27       -0.0000000000
   28        0.0000000000
   29       -0.0387248200
   30       -0.0519452600
   31       -0.0000000000
   32        0.0000000000
   33        1.0076297200
   34        0.0509353800
   35       -0.0000000000
   36        0.0000000000
   37      -13.8488338200
   38        4.4787565700
   39        0.0000000000
   40       -0.0000000000
   41       -0.0098044600
   42       -0.0312828300
   43       -0.0312828300
   44       -0.0000000000
   45        0.0000000000
   46       -0.0000000000
 Ene=         -0.01404160
 Spin= Alpha
 Occup=        0.00000000
    1       -0.0000000000
    2       -0.0000000000
    3       -0.0000000000
    4        0.2206912000
    5        0.0027157000
    6        0.0000000000
    7        0.0000000000
    8        0.2234930000
    9        0.0027501800
   10        0.0000000000
   11       -0.0000000000
   12        0.9959053300
   13        0.0122550600
   14       -0.0000000000
   15       -0.0000000000
   16       -1.0839338900
   17       -0.0133382900
   18       -0.0000000000
   19       -0.0000000000
   20       -0.0000000000
   21       -0.0095905900
   22       -0.0001180200
   23        0.0000000000
   24        0.0000000000
   25        0.0000000000
   26        0.0000000000
   27       -0.1823746000
   28       -0.0022442000
   29        0.0000000000
   30        0.0000000000
   31       -0.1676839900
   32       -0.0020634300
   33       -0.0000000000
   34        0.0000000000
   35       -0.8471486300
   36       -0.0104245500
   37        0.0000000000
   38       -0.0000000000
   39        0.8984952500
   40        0.0110563900
   41        0.0000000000
   42        0.0000000000
   43        0.0000000000
   44       -0.0200292300
   45       -0.0002464700
   46       -0.0000000000
 Ene=         -0.01404160
 Spin= Alpha
 Occup=        0.00000000
    1       -0.0000000000
    2       -0.0000000000
    3       -0.0000000000
    4        0.0027157000
    5       -0.2206912000
    6        0.0000000000
    7        0.0000000000
    8        0.0027501800
    9       -0.2234930000
   10        0.0000000000
   11       -0.0000000000
   12        0.0122550600
   13       -0.9959053300
   14       -0.0000000000
   15       -0.0000000000
   16       -0.0133382900
   17        1.0839338900
   18       -0.0000000000
   19       -0.0000000000
   20       -0.0000000000
   21       -0.0001180200
   22        0.0095905900
   23       -0.0000000000
   24        0.0000000000
   25        0.0000000000
   26       -0.0000000000
   27       -0.0022442000
   28        0.1823746000
   29        0.0000000000
   30        0.0000000000
   31       -0.0020634300
   32        0.1676839900
   33       -0.0000000000
   34       -0.0000000000
   35       -0.0104245500
   36        0.8471486300
   37        0.0000000000
   38       -0.0000000000
   39        0.0110563900
   40       -0.8984952500
   41        0.0000000000
   42        0.0000000000
   43        0.0000000000
   44       -0.0002464700
   45        0.0200292300
   46        0.0000000000
 Ene=          0.07654890
 Spin= Alpha
 Occup=        0.00000000
    1        0.0428161100
    2        0.0736991200
    3       -0.1435478600
    4        0.0000000000
    5       -0.0000000000
    6       -0.1442198600
    7       -0.0981151300
    8        0.0000000000
    9       -0.0000000000
   10       -3.0042067400
   11       -2.4880974200
   12       -0.0000000000
   13        0.0000000000
   14        1.5018712200
   15        0.8246568600
   16       -0.0000000000
   17       -0.0000000000
   18        0.0641074500
   19        0.0068455100
   20        0.0068455100
   21        0.0000000000
   22       -0.0000000000
   23        0.0000000000
   24       -0.0502873600
   25       -0.0835394200
   26       -0.1240359300
   27       -0.0000000000
   28        0.0000000000
   29        0.2152596300
   30        0.0330680300
   31       -0.0000000000
   32        0.0000000000
   33        2.9135421300
   34       -2.6891962400
   35       -0.0000000000
   36       -0.0000000000
   37       -1.4698596600
   38        0.9748830400
   39        0.0000000000
   40        0.0000000000
   41       -0.0589770300
   42        0.0008422100
   43        0.0008422100
   44       -0.0000000000
   45        0.0000000000
   46       -0.0000000000
 Ene=          0.15818800
 Spin= Alpha
 Occup=        0.00000000
    1        0.0020216800
    2       -0.0064546100
    3       -0.0771683600
    4       -0.0000000000
    5       -0.0000000000
    6       -0.3479169400
    7       -0.5909205900
    8       -0.0000000000
    9       -0.0000000000
   10        0.3983821000
   11        1.3546779200
   12        0.0000000000
   13        0.0000000000
   14       -0.8326889500
   15       -1.0277487700
   16       -0.0000000000
   17       -0.0000000000
   18       -0.1061956700
   19       -0.0172054600
   20       -0.0172054600
   21       -0.0000000000
   22        0.0000000000
   23        0.0000000000
   24        0.0104483100
   25        0.0092097600
   26        0.1412637400
   27       -0.0000000000
   28        0.0000000000
   29       -0.3808597100
   30        0.7821739800
   31       -0.0000000000
   32        0.0000000000
   33        0.1686411000
   34       -1.4413144800
   35        0.0000000000
   36       -0.0000000000
   37        0.8763083500
   38        0.5266006500
   39       -0.0000000000
   40        0.0000000000
   41       -0.0799912800
   42       -0.0188491900
   43       -0.0188491900
   44        0.0000000000
   45        0.0000000000
   46        0.0000000000
 Ene=          0.17388600
 Spin= Alpha
 Occup=        0.00000000
    1       -0.0000000000
    2       -0.0000000000
    3        0.0000000000
    4        0.0796312000
    5        0.0015866000
    6       -0.0000000000
    7        0.0000000000
    8        0.4548332300
    9        0.0090622800
   10        0.0000000000
   11        0.0000000000
   12       -0.4415568600
   13       -0.0087977600
   14       -0.0000000000
   15       -0.0000000000
   16        0.0734638500
   17        0.0014637200
   18       -0.0000000000
   19        0.0000000000
   20        0.0000000000
   21        0.0492149000
   22        0.0009805800
   23        0.0000000000
   24       -0.0000000000
   25       -0.0000000000
   26        0.0000000000
   27        0.2182862500
   28        0.0043492200
   29        0.0000000000
   30        0.0000000000
   31        1.0823642600
   32        0.0215654700
   33       -0.0000000000
   34       -0.0000000000
   35       -1.6943389000
   36       -0.0337587000
   37        0.0000000000
   38       -0.0000000000
   39        0.7049595300
   40        0.0140459000
   41        0.0000000000
   42        0.0000000000
   43        0.0000000000
   44       -0.0414324800
   45       -0.0008255200
   46        0.0000000000
 Ene=          0.17388600
 Spin= Alpha
 Occup=        0.00000000
    1       -0.0000000000
    2       -0.0000000000
    3       -0.0000000000
    4       -0.0015866000
    5        0.0796312000
    6        0.0000000000
    7       -0.0000000000
    8       -0.0090622800
    9        0.4548332300
   10       -0.0000000000
   11       -0.0000000000
   12        0.0087977600
   13       -0.4415568600
   14        0.0000000000
   15        0.0000000000
   16       -0.0014637200
   17        0.0734638500
   18        0.0000000000
   19        0.0000000000
   20        0.0000000000
   21       -0.0009805800
   22        0.0492149000
   23       -0.0000000000
   24       -0.0000000000
   25       -0.0000000000
   26       -0.0000000000
   27       -0.0043492200
   28        0.2182862500
   29       -0.0000000000
   30       -0.0000000000
   31       -0.0215654700
   32        1.0823642600
   33        0.0000000000
   34        0.0000000000
   35        0.0337587000
   36       -1.6943389000
   37       -0.0000000000
   38       -0.0000000000
   39       -0.0140459000
   40        0.7049595300
   41        0.0000000000
   42       -0.0000000000
   43       -0.0000000000
   44        0.0008255200
   45       -0.0414324800
   46       -0.0000000000
 Ene=          0.17980300
 Spin= Alpha
 Occup=        0.00000000
    1        0.0668722700
    2        0.0813278000
    3        0.0026662800
    4        0.0000000000
    5       -0.0000000000
    6       -1.0769950600
    7       -0.0243330200
    8        0.0000000000
    9       -0.0000000000
   10        1.3809614700
   11       -0.2077144200
   12       -0.0000000000
   13        0.0000000000
   14        0.5313253200
   15        0.2732609100
   16        0.0000000000
   17       -0.0000000000
   18       -0.1474103400
   19       -0.1054441200
   20       -0.1054441200
   21        0.0000000000
   22       -0.0000000000
   23        0.0000000000
   24        0.0802794700
   25        0.0920190800
   26       -0.1126610300
   27        0.0000000000
   28        0.0000000000
   29       -1.4525550000
   30       -0.3940080700
   31        0.0000000000
   32        0.0000000000
   33        2.6372233600
   34        0.2768708800
   35        0.0000000000
   36       -0.0000000000
   37       -1.8956623900
   38        0.3647034800
   39        0.0000000000
   40        0.0000000000
   41       -0.2180263500
   42       -0.1395621100
   43       -0.1395621100
   44       -0.0000000000
   45        0.0000000000
   46        0.0000000000
 Ene=          0.20384500
 Spin= Alpha
 Occup=        0.00000000
    1        0.0000000000
    2        0.0000000000