 Molden2AIM, Version 3.1.0 (02/25/2015)           Time: Mon Dec  2 17:18:45 2024
GAUSSIAN             46 MOL ORBITALS     72 PRIMITIVES        2 NUCLEI
  Be   1    (CENTRE  1)   0.00000000  0.00000000  0.00000000  CHARGE =  4.0
  Be   2    (CENTRE  2)   4.54000000  0.00000000  0.00000000  CHARGE =  4.0
CENTRE ASSIGNMENTS    1  1  1  1  1  1  1  1  1  1  1  1  1  1  1  1  1  1  1  1
CENTRE ASSIGNMENTS    1  1  1  1  1  1  1  1  1  1  1  1  1  1  1  1  2  2  2  2
CENTRE ASSIGNMENTS    2  2  2  2  2  2  2  2  2  2  2  2  2  2  2  2  2  2  2  2
CENTRE ASSIGNMENTS    2  2  2  2  2  2  2  2  2  2  2  2
TYPE ASSIGNMENTS      1  1  1  1  1  1  1  1  1  2  2  2  3  3  3  4  4  4  1  2
TYPE ASSIGNMENTS      3  4  1  2  3  4  1  2  3  4  5  6  7  8  9 10  1  1  1  1
TYPE ASSIGNMENTS      1  1  1  1  1  2  2  2  3  3  3  4  4  4  1  2  3  4  1  2
TYPE ASSIGNMENTS      3  4  1  2  3  4  5  6  7  8  9 10
EXPONENTS  0.1682800D+04 0.2517150D+03 0.5741160D+02 0.1651710D+02 0.4853640D+01
EXPONENTS  0.6268630D+00 0.8309380D+01 0.1740750D+01 0.4858160D+00 0.8309380D+01
EXPONENTS  0.1740750D+01 0.4858160D+00 0.8309380D+01 0.1740750D+01 0.4858160D+00
EXPONENTS  0.8309380D+01 0.1740750D+01 0.4858160D+00 0.1636130D+00 0.1636130D+00
EXPONENTS  0.1636130D+00 0.1636130D+00 0.5672850D-01 0.5672850D-01 0.5672850D-01
EXPONENTS  0.5672850D-01 0.2070000D-01 0.2070000D-01 0.2070000D-01 0.2070000D-01
EXPONENTS  0.2550000D+00 0.2550000D+00 0.2550000D+00 0.2550000D+00 0.2550000D+00
EXPONENTS  0.2550000D+00 0.1682800D+04 0.2517150D+03 0.5741160D+02 0.1651710D+02
EXPONENTS  0.4853640D+01 0.6268630D+00 0.8309380D+01 0.1740750D+01 0.4858160D+00
EXPONENTS  0.8309380D+01 0.1740750D+01 0.4858160D+00 0.8309380D+01 0.1740750D+01
EXPONENTS  0.4858160D+00 0.8309380D+01 0.1740750D+01 0.4858160D+00 0.1636130D+00
EXPONENTS  0.1636130D+00 0.1636130D+00 0.1636130D+00 0.5672850D-01 0.5672850D-01
EXPONENTS  0.5672850D-01 0.5672850D-01 0.2070000D-01 0.2070000D-01 0.2070000D-01
EXPONENTS  0.2070000D-01 0.2550000D+00 0.2550000D+00 0.2550000D+00 0.2550000D+00
EXPONENTS  0.2550000D+00 0.2550000D+00
MO    1     MO 0.0        OCC NO =    2.0000000  ORB. ENERGY =   -4.102320
 -0.18068537D+00 -0.33451320D+00 -0.54173989D+00 -0.69473162D+00 -0.63023908D+00
 -0.30621039D-01 -0.11666078D+00 -0.30839522D+00  0.37948269D-03 -0.97450240D-04
 -0.82927288D-04 -0.65270975D-04 -0.00000000D+00 -0.00000000D+00 -0.00000000D+00
  0.00000000D+00  0.00000000D+00  0.00000000D+00 -0.45287478D-02 -0.79353508D-05
  0.00000000D+00 -0.00000000D+00 -0.14869421D-03 -0.48886946D-05 -0.00000000D+00
  0.00000000D+00  0.29713430D-04  0.33232047D-05  0.00000000D+00 -0.00000000D+00
  0.12903646D-02  0.13497352D-02  0.13497352D-02  0.00000000D+00  0.00000000D+00
 -0.00000000D+00 -0.18012483D+00 -0.33347544D+00 -0.54005924D+00 -0.69257634D+00
 -0.62828387D+00 -0.30526043D-01 -0.11629894D+00 -0.30743869D+00  0.37830567D-03
  0.96788994D-04  0.82364587D-04  0.64828080D-04  0.00000000D+00  0.00000000D+00
  0.00000000D+00 -0.00000000D+00 -0.00000000D+00 -0.00000000D+00 -0.45148501D-02
  0.88178805D-05 -0.00000000D+00  0.00000000D+00 -0.14720468D-03  0.46144258D-05
  0.00000000D+00 -0.00000000D+00  0.28246719D-04 -0.31891260D-05 -0.00000000D+00
  0.00000000D+00  0.12855345D-02  0.13455196D-02  0.13455196D-02  0.00000000D+00
 -0.00000000D+00  0.00000000D+00
MO    2     MO 0.0        OCC NO =    2.0000000  ORB. ENERGY =   -4.102270
  0.18014506D+00  0.33351289D+00  0.54011989D+00  0.69265411D+00  0.62835443D+00
  0.30529471D-01  0.11628975D+00  0.30741439D+00 -0.37827577D-03  0.20143301D-03
  0.17141357D-03  0.13491736D-03  0.00000000D+00  0.00000000D+00  0.00000000D+00
  0.00000000D+00  0.00000000D+00  0.00000000D+00  0.44694498D-02 -0.28127036D-03
 -0.00000000D+00 -0.00000000D+00  0.47902556D-03  0.87916393D-04  0.00000000D+00
  0.00000000D+00 -0.47229865D-03 -0.43162042D-04 -0.00000000D+00 -0.00000000D+00
 -0.15525350D-02 -0.13553108D-02 -0.13553108D-02 -0.00000000D+00  0.00000000D+00
  0.00000000D+00 -0.18070552D+00 -0.33455050D+00 -0.54180030D+00 -0.69480908D+00
 -0.63030935D+00 -0.30624453D-01 -0.11665162D+00 -0.30837101D+00  0.37945290D-03
  0.20169460D-03  0.17163617D-03  0.13509257D-03  0.00000000D+00  0.00000000D+00
  0.00000000D+00  0.00000000D+00  0.00000000D+00  0.00000000D+00 -0.44835070D-02
 -0.28124070D-03 -0.00000000D+00  0.00000000D+00 -0.47948451D-03  0.87930600D-04
  0.00000000D+00 -0.00000000D+00  0.47238889D-03 -0.43172003D-04  0.00000000D+00
  0.00000000D+00  0.15565382D-02  0.13594992D-02  0.13594992D-02  0.00000000D+00
  0.00000000D+00 -0.00000000D+00
MO    3     MO 0.0        OCC NO =    2.0000000  ORB. ENERGY =   -0.320235
 -0.35930586D-01 -0.66520357D-01 -0.10772887D+00 -0.13815238D+00 -0.12532757D+00
 -0.60892139D-02 -0.47397511D-01 -0.12529632D+00  0.15417808D-03  0.45584404D-01
  0.38790987D-01  0.30531875D-01 -0.00000000D+00 -0.00000000D+00 -0.00000000D+00
  0.00000000D+00  0.00000000D+00  0.00000000D+00  0.72916970D-01  0.12784796D-01
 -0.00000000D+00 -0.00000000D+00  0.14969520D-01  0.11996236D-02 -0.00000000D+00
  0.00000000D+00  0.14804783D-02  0.18110240D-03 -0.00000000D+00 -0.00000000D+00
  0.18728425D-02 -0.22212750D-02 -0.22212750D-02 -0.00000000D+00 -0.00000000D+00
  0.00000000D+00 -0.35930706D-01 -0.66520579D-01 -0.10772923D+00 -0.13815284D+00
 -0.12532799D+00 -0.60892342D-02 -0.47397674D-01 -0.12529675D+00  0.15417861D-03
 -0.45584281D-01 -0.38790882D-01 -0.30531792D-01 -0.00000000D+00 -0.00000000D+00
 -0.00000000D+00 -0.00000000D+00 -0.00000000D+00 -0.00000000D+00  0.72917370D-01
 -0.12784648D-01  0.00000000D+00 -0.00000000D+00  0.14969633D-01 -0.11995802D-02
 -0.00000000D+00 -0.00000000D+00  0.14791835D-02 -0.18101679D-03  0.00000000D+00
  0.00000000D+00  0.18728516D-02 -0.22212343D-02 -0.22212343D-02 -0.00000000D+00
 -0.00000000D+00 -0.00000000D+00
MO    4     MO 0.0        OCC NO =    2.0000000  ORB. ENERGY =   -0.204144
 -0.34814317D-01 -0.64453743D-01 -0.10438202D+00 -0.13386035D+00 -0.12143397D+00
 -0.59000379D-02 -0.47025403D-01 -0.12431264D+00  0.15296766D-03 -0.45752332D-01
 -0.38933889D-01 -0.30644350D-01  0.00000000D+00  0.00000000D+00  0.00000000D+00
 -0.00000000D+00 -0.00000000D+00 -0.00000000D+00  0.74398842D-01 -0.12968060D-01
  0.00000000D+00 -0.00000000D+00  0.38259710D-01  0.11102554D-02  0.00000000D+00
 -0.00000000D+00  0.18738135D-01  0.89232597D-03  0.00000000D+00  0.00000000D+00
 -0.15841602D-02 -0.69419165D-03 -0.69419165D-03  0.00000000D+00 -0.00000000D+00
  0.00000000D+00  0.34814569D-01  0.64454211D-01  0.10438278D+00  0.13386132D+00
  0.12143486D+00  0.59000807D-02  0.47025785D-01  0.12431365D+00 -0.15296891D-03
 -0.45751075D-01 -0.38932819D-01 -0.30643508D-01  0.00000000D+00  0.00000000D+00
  0.00000000D+00 -0.00000000D+00 -0.00000000D+00 -0.00000000D+00 -0.74399148D-01
 -0.12967861D-01 -0.00000000D+00 -0.00000000D+00 -0.38261360D-01  0.11102053D-02
 -0.00000000D+00 -0.00000000D+00 -0.18736707D-01  0.89257555D-03 -0.00000000D+00
 -0.00000000D+00  0.15841029D-02  0.69428954D-03  0.69428954D-03  0.00000000D+00
  0.00000000D+00  0.00000000D+00
MO    5     MO 0.0        OCC NO =    0.0000000  ORB. ENERGY =   -0.134266
 -0.00000000D+00 -0.00000000D+00 -0.00000000D+00 -0.00000000D+00 -0.00000000D+00
 -0.00000000D+00  0.00000000D+00  0.00000000D+00 -0.00000000D+00  0.00000000D+00
  0.00000000D+00  0.00000000D+00 -0.36998588D-01 -0.31484711D-01 -0.24781200D-01
 -0.49772541D-01 -0.42354969D-01 -0.33337037D-01  0.00000000D+00  0.00000000D+00
 -0.16809811D-01 -0.22613485D-01 -0.00000000D+00 -0.00000000D+00  0.15862141D-02
  0.21338627D-02  0.00000000D+00  0.00000000D+00 -0.32240497D-02 -0.43371694D-02
  0.00000000D+00  0.00000000D+00  0.00000000D+00 -0.24283874D-02 -0.32668014D-02
  0.00000000D+00 -0.00000000D+00 -0.00000000D+00 -0.00000000D+00 -0.00000000D+00
 -0.00000000D+00 -0.00000000D+00 -0.00000000D+00 -0.00000000D+00  0.00000000D+00
 -0.00000000D+00 -0.00000000D+00 -0.00000000D+00 -0.36997854D-01 -0.31484086D-01
 -0.24780709D-01 -0.49771553D-01 -0.42354128D-01 -0.33336375D-01 -0.00000000D+00
 -0.00000000D+00 -0.16808375D-01 -0.22611552D-01  0.00000000D+00 -0.00000000D+00
  0.15848881D-02  0.21320790D-02 -0.00000000D+00  0.00000000D+00 -0.32221960D-02
 -0.43346758D-02 -0.00000000D+00 -0.00000000D+00 -0.00000000D+00  0.24285308D-02
  0.32669945D-02  0.00000000D+00
MO    6     MO 0.0        OCC NO =    0.0000000  ORB. ENERGY =   -0.134266
 -0.00000000D+00 -0.00000000D+00 -0.00000000D+00 -0.00000000D+00 -0.00000000D+00
 -0.00000000D+00 -0.00000000D+00 -0.00000000D+00  0.00000000D+00 -0.00000000D+00
 -0.00000000D+00 -0.00000000D+00  0.49772541D-01  0.42354969D-01  0.33337037D-01
 -0.36998588D-01 -0.31484711D-01 -0.24781200D-01 -0.00000000D+00  0.00000000D+00
  0.22613485D-01 -0.16809811D-01  0.00000000D+00  0.00000000D+00 -0.21338627D-02
  0.15862141D-02 -0.00000000D+00 -0.00000000D+00  0.43371694D-02 -0.32240497D-02
 -0.00000000D+00 -0.00000000D+00 -0.00000000D+00  0.32668014D-02 -0.24283874D-02
  0.00000000D+00 -0.00000000D+00 -0.00000000D+00 -0.00000000D+00 -0.00000000D+00
 -0.00000000D+00 -0.00000000D+00  0.00000000D+00  0.00000000D+00 -0.00000000D+00
 -0.00000000D+00 -0.00000000D+00 -0.00000000D+00  0.49771553D-01  0.42354128D-01
  0.33336375D-01 -0.36997854D-01 -0.31484086D-01 -0.24780709D-01  0.00000000D+00
  0.00000000D+00  0.22611552D-01 -0.16808375D-01 -0.00000000D+00  0.00000000D+00
 -0.21320790D-02  0.15848881D-02  0.00000000D+00 -0.00000000D+00  0.43346758D-02
 -0.32221960D-02  0.00000000D+00  0.00000000D+00  0.00000000D+00 -0.32669945D-02
  0.24285308D-02 -0.00000000D+00
MO    7     MO 0.0        OCC NO =    0.0000000  ORB. ENERGY =   -0.118451
 -0.83176616D-03 -0.15398964D-02 -0.24938428D-02 -0.31981241D-02 -0.29012395D-02
 -0.14096074D-03 -0.38673501D-02 -0.10223421D-01  0.12579999D-04  0.92939241D-01
  0.79088560D-01  0.62249563D-01  0.00000000D+00  0.00000000D+00  0.00000000D+00
  0.00000000D+00  0.00000000D+00  0.00000000D+00 -0.15193519D-01  0.29273224D-01
  0.00000000D+00  0.00000000D+00  0.49801169D-01  0.47786051D-02  0.00000000D+00
 -0.00000000D+00 -0.28907421D-01 -0.17459516D-02  0.00000000D+00  0.00000000D+00
 -0.17433191D-02 -0.54952440D-02 -0.54952440D-02  0.00000000D+00  0.00000000D+00
 -0.00000000D+00 -0.82856459D-03 -0.15339692D-02 -0.24842437D-02 -0.31858142D-02
 -0.28900723D-02 -0.14041817D-03 -0.38629475D-02 -0.10211783D-01  0.12565678D-04
 -0.92944843D-01 -0.79093328D-01 -0.62253315D-01  0.00000000D+00  0.00000000D+00
  0.00000000D+00  0.00000000D+00  0.00000000D+00  0.00000000D+00 -0.15200534D-01
 -0.29272079D-01  0.00000000D+00  0.00000000D+00  0.49800977D-01 -0.47833612D-02
  0.00000000D+00  0.00000000D+00 -0.28934205D-01  0.17503676D-02  0.00000000D+00
  0.00000000D+00 -0.17429878D-02 -0.54952108D-02 -0.54952108D-02 -0.00000000D+00
 -0.00000000D+00 -0.00000000D+00
MO    8     MO 0.0        OCC NO =    0.0000000  ORB. ENERGY =   -0.094470
  0.11319215D-01  0.20955912D-01  0.33937834D-01  0.43522153D-01  0.39481954D-01
  0.19182854D-02  0.19046988D-01  0.50351112D-01 -0.61957431D-04  0.79863236D-01
  0.67961265D-01  0.53491416D-01 -0.00000000D+00 -0.00000000D+00 -0.00000000D+00
 -0.00000000D+00 -0.00000000D+00 -0.00000000D+00  0.35541603D-03  0.28626143D-01
 -0.00000000D+00 -0.00000000D+00 -0.88774678D-01  0.28105168D-02 -0.00000000D+00
  0.00000000D+00  0.24067323D-01  0.88966501D-02 -0.00000000D+00  0.00000000D+00
  0.55284490D-02  0.61966031D-02  0.61966031D-02 -0.00000000D+00  0.00000000D+00
  0.00000000D+00  0.11321796D-01  0.20960690D-01  0.33945572D-01  0.43532077D-01
  0.39490956D-01  0.19187228D-02  0.19049496D-01  0.50357743D-01 -0.61965590D-04
 -0.79866979D-01 -0.67964450D-01 -0.53493922D-01 -0.00000000D+00 -0.00000000D+00
 -0.00000000D+00 -0.00000000D+00 -0.00000000D+00 -0.00000000D+00  0.33984255D-03
 -0.28624153D-01 -0.00000000D+00 -0.00000000D+00 -0.88729910D-01 -0.28209382D-02
 -0.00000000D+00 -0.00000000D+00  0.23795404D-01 -0.88672502D-02  0.00000000D+00
 -0.00000000D+00  0.55279445D-02  0.61944208D-02  0.61944208D-02  0.00000000D+00
  0.00000000D+00  0.00000000D+00
MO    9     MO 0.0        OCC NO =    0.0000000  ORB. ENERGY =   -0.082628
  0.00000000D+00  0.00000000D+00  0.00000000D+00  0.00000000D+00  0.00000000D+00
  0.00000000D+00  0.00000000D+00  0.00000000D+00 -0.00000000D+00  0.00000000D+00
  0.00000000D+00  0.00000000D+00  0.32038029D-02  0.27263420D-02  0.21458679D-02
 -0.11296888D+00 -0.96133194D-01 -0.75665169D-01 -0.00000000D+00 -0.00000000D+00
  0.35654050D-03 -0.12571926D-01  0.00000000D+00  0.00000000D+00  0.74629309D-03
 -0.26314920D-01 -0.00000000D+00 -0.00000000D+00 -0.20260973D-03  0.71441889D-02
 -0.00000000D+00 -0.00000000D+00 -0.00000000D+00  0.14601383D-03 -0.51486067D-02
  0.00000000D+00 -0.00000000D+00 -0.00000000D+00 -0.00000000D+00 -0.00000000D+00
 -0.00000000D+00 -0.00000000D+00 -0.00000000D+00 -0.00000000D+00  0.00000000D+00
  0.00000000D+00  0.00000000D+00  0.00000000D+00  0.32044859D-02  0.27269233D-02
  0.21463254D-02 -0.11299279D+00 -0.96153538D-01 -0.75681182D-01  0.00000000D+00
 -0.00000000D+00  0.35718720D-03 -0.12594695D-01 -0.00000000D+00  0.00000000D+00
  0.74593872D-03 -0.26302419D-01  0.00000000D+00 -0.00000000D+00 -0.20205931D-03
  0.71247806D-02  0.00000000D+00  0.00000000D+00  0.00000000D+00 -0.14592774D-03
  0.51455468D-02 -0.00000000D+00
MO   10     MO 0.0        OCC NO =    0.0000000  ORB. ENERGY =   -0.082628
  0.00000000D+00  0.00000000D+00  0.00000000D+00  0.00000000D+00  0.00000000D+00
  0.00000000D+00  0.00000000D+00  0.00000000D+00 -0.00000000D+00  0.00000000D+00
  0.00000000D+00  0.00000000D+00  0.11296888D+00  0.96133194D-01  0.75665169D-01
  0.32038029D-02  0.27263420D-02  0.21458679D-02 -0.00000000D+00 -0.00000000D+00
  0.12571926D-01  0.35654050D-03 -0.00000000D+00  0.00000000D+00  0.26314920D-01
  0.74629309D-03  0.00000000D+00  0.00000000D+00 -0.71441889D-02 -0.20260973D-03
  0.00000000D+00 -0.00000000D+00  0.00000000D+00  0.51486067D-02  0.14601383D-03
  0.00000000D+00 -0.00000000D+00 -0.00000000D+00 -0.00000000D+00 -0.00000000D+00
 -0.00000000D+00 -0.00000000D+00  0.00000000D+00  0.00000000D+00 -0.00000000D+00
 -0.00000000D+00 -0.00000000D+00 -0.00000000D+00  0.11299279D+00  0.96153538D-01
  0.75681182D-01  0.32044859D-02  0.27269233D-02  0.21463254D-02  0.00000000D+00
 -0.00000000D+00  0.12594695D-01  0.35718720D-03 -0.00000000D+00  0.00000000D+00
  0.26302419D-01  0.74593872D-03 -0.00000000D+00  0.00000000D+00 -0.71247806D-02
 -0.20205931D-03  0.00000000D+00  0.00000000D+00  0.00000000D+00 -0.51455468D-02
 -0.14592774D-03 -0.00000000D+00
MO   11     MO 0.0        OCC NO =    0.0000000  ORB. ENERGY =   -0.080026
 -0.73654942D-02 -0.13636162D-01 -0.22083592D-01 -0.28320177D-01 -0.25691190D-01
 -0.12482421D-02 -0.80561942D-02 -0.21296719D-01  0.26205776D-04 -0.13176187D-01
 -0.11212547D-01 -0.88252480D-02 -0.00000000D+00 -0.00000000D+00 -0.00000000D+00
 -0.00000000D+00 -0.00000000D+00 -0.00000000D+00  0.37238321D-01  0.82675765D-02
 -0.00000000D+00 -0.00000000D+00 -0.98656626D-01 -0.30124544D-01  0.00000000D+00
 -0.00000000D+00  0.56950987D+00  0.63603087D-01 -0.00000000D+00  0.00000000D+00
  0.36401463D-03  0.46469794D-02  0.46469794D-02  0.00000000D+00 -0.00000000D+00
 -0.00000000D+00  0.73563731D-02  0.13619276D-01  0.22056245D-01  0.28285107D-01
  0.25659375D-01  0.12466963D-02  0.80419976D-02  0.21259190D-01 -0.26159596D-04
 -0.13063651D-01 -0.11116783D-01 -0.87498732D-02  0.00000000D+00  0.00000000D+00
  0.00000000D+00 -0.00000000D+00 -0.00000000D+00 -0.00000000D+00 -0.37225554D-01
  0.82850135D-02  0.00000000D+00 -0.00000000D+00  0.98706745D-01 -0.30103443D-01
 -0.00000000D+00 -0.00000000D+00 -0.56953509D+00  0.63594046D-01  0.00000000D+00
  0.00000000D+00 -0.36949384D-03 -0.46485142D-02 -0.46485142D-02  0.00000000D+00
  0.00000000D+00  0.00000000D+00
MO   12     MO 0.0        OCC NO =    0.0000000  ORB. ENERGY =   -0.074740
 -0.00000000D+00 -0.00000000D+00 -0.00000000D+00 -0.00000000D+00 -0.00000000D+00
 -0.00000000D+00 -0.00000000D+00 -0.00000000D+00  0.00000000D+00 -0.00000000D+00
 -0.00000000D+00 -0.00000000D+00  0.13079594D-03  0.11130350D-03  0.87605514D-04
 -0.33279326D-01 -0.28319728D-01 -0.22290084D-01  0.00000000D+00  0.00000000D+00
  0.96538363D-04 -0.24563000D-01 -0.00000000D+00 -0.00000000D+00 -0.40552330D-04
  0.10318069D-01  0.00000000D+00  0.00000000D+00  0.77294924D-04 -0.19666805D-01
 -0.00000000D+00  0.00000000D+00  0.00000000D+00 -0.12871067D-04  0.32751335D-02
 -0.00000000D+00  0.00000000D+00  0.00000000D+00  0.00000000D+00  0.00000000D+00
  0.00000000D+00  0.00000000D+00  0.00000000D+00  0.00000000D+00 -0.00000000D+00
 -0.00000000D+00 -0.00000000D+00 -0.00000000D+00 -0.13041082D-03 -0.11097577D-03
 -0.87347564D-04  0.33181273D-01  0.28236287D-01  0.22224409D-01 -0.00000000D+00
  0.00000000D+00 -0.96504248D-04  0.24554590D-01  0.00000000D+00 -0.00000000D+00
  0.40650593D-04 -0.10343047D-01 -0.00000000D+00  0.00000000D+00 -0.77324247D-04
  0.19674277D-01  0.00000000D+00 -0.00000000D+00 -0.00000000D+00 -0.12889327D-04
  0.32795760D-02  0.00000000D+00
MO   13     MO 0.0        OCC NO =    0.0000000  ORB. ENERGY =   -0.074740
  0.00000000D+00  0.00000000D+00  0.00000000D+00  0.00000000D+00  0.00000000D+00
  0.00000000D+00  0.00000000D+00  0.00000000D+00 -0.00000000D+00  0.00000000D+00
  0.00000000D+00  0.00000000D+00 -0.33279326D-01 -0.28319728D-01 -0.22290084D-01
 -0.13079594D-03 -0.11130350D-03 -0.87605514D-04 -0.00000000D+00 -0.00000000D+00
 -0.24563000D-01 -0.96538363D-04  0.00000000D+00  0.00000000D+00  0.10318069D-01
  0.40552330D-04 -0.00000000D+00 -0.00000000D+00 -0.19666805D-01 -0.77294924D-04
 -0.00000000D+00 -0.00000000D+00 -0.00000000D+00  0.32751335D-02  0.12871067D-04
 -0.00000000D+00 -0.00000000D+00 -0.00000000D+00 -0.00000000D+00 -0.00000000D+00
 -0.00000000D+00 -0.00000000D+00 -0.00000000D+00 -0.00000000D+00  0.00000000D+00
  0.00000000D+00  0.00000000D+00  0.00000000D+00  0.33181273D-01  0.28236287D-01
  0.22224409D-01  0.13041082D-03  0.11097577D-03  0.87347564D-04  0.00000000D+00
 -0.00000000D+00  0.24554590D-01  0.96504248D-04 -0.00000000D+00  0.00000000D+00
 -0.10343047D-01 -0.40650593D-04  0.00000000D+00 -0.00000000D+00  0.19674277D-01
  0.77324247D-04 -0.00000000D+00  0.00000000D+00  0.00000000D+00  0.32795760D-02
  0.12889327D-04  0.00000000D+00
MO   14     MO 0.0        OCC NO =    0.0000000  ORB. ENERGY =   -0.055343
 -0.57574757D-02 -0.10659145D-01 -0.17262351D-01 -0.22137378D-01 -0.20082346D-01
 -0.97572861D-03 -0.86788666D-02 -0.22942766D-01  0.28231250D-04 -0.81452625D-01
 -0.69313788D-01 -0.54555969D-01  0.00000000D+00  0.00000000D+00  0.00000000D+00
  0.00000000D+00  0.00000000D+00  0.00000000D+00  0.13316538D-01 -0.40264904D-02
 -0.00000000D+00  0.00000000D+00  0.25406799D-01 -0.22313308D-01  0.00000000D+00
  0.00000000D+00 -0.24585876D-01  0.15060300D-01  0.00000000D+00  0.00000000D+00
 -0.42183394D-02  0.27687752D-03  0.27687752D-03 -0.00000000D+00  0.00000000D+00
 -0.00000000D+00 -0.57608870D-02 -0.10665461D-01 -0.17272579D-01 -0.22150495D-01
 -0.20094245D-01 -0.97630673D-03 -0.86808330D-02 -0.22947964D-01  0.28237647D-04
  0.81456193D-01  0.69316824D-01  0.54558358D-01 -0.00000000D+00 -0.00000000D+00
 -0.00000000D+00  0.00000000D+00  0.00000000D+00  0.00000000D+00  0.13349726D-01
  0.40221475D-02 -0.00000000D+00 -0.00000000D+00  0.25292904D-01  0.22335233D-01
  0.00000000D+00  0.00000000D+00 -0.23963643D-01 -0.15125958D-01 -0.00000000D+00
 -0.00000000D+00 -0.42168619D-02  0.28271066D-03  0.28271066D-03  0.00000000D+00
 -0.00000000D+00  0.00000000D+00
MO   15     MO 0.0        OCC NO =    0.0000000  ORB. ENERGY =   -0.037793
 -0.11033201D-01 -0.20426398D-01 -0.33080292D-01 -0.42422435D-01 -0.38484323D-01
 -0.18698142D-02 -0.19079905D-01 -0.50438129D-01  0.62064506D-04 -0.27217523D-01
 -0.23161311D-01 -0.18229963D-01  0.00000000D+00  0.00000000D+00  0.00000000D+00
  0.00000000D+00  0.00000000D+00  0.00000000D+00 -0.53085220D-02  0.98010497D-02
 -0.00000000D+00  0.00000000D+00  0.14037195D+00 -0.11252924D-01  0.00000000D+00
  0.00000000D+00 -0.75351669D+00 -0.66343375D-01 -0.00000000D+00 -0.00000000D+00
 -0.41368969D-02 -0.74010024D-02 -0.74010024D-02 -0.00000000D+00 -0.00000000D+00
 -0.00000000D+00  0.11035123D-01  0.20429956D-01  0.33086054D-01  0.42429824D-01
  0.38491026D-01  0.18701399D-02  0.19082951D-01  0.50446182D-01 -0.62074415D-04
 -0.27230988D-01 -0.23172770D-01 -0.18238981D-01 -0.00000000D+00 -0.00000000D+00
 -0.00000000D+00 -0.00000000D+00 -0.00000000D+00 -0.00000000D+00  0.53047542D-02
  0.98029749D-02 -0.00000000D+00 -0.00000000D+00 -0.14038420D+00 -0.11258251D-01
 -0.00000000D+00 -0.00000000D+00  0.75352515D+00 -0.66340671D-01  0.00000000D+00
  0.00000000D+00  0.41379376D-02  0.74013804D-02  0.74013804D-02 -0.00000000D+00
  0.00000000D+00 -0.00000000D+00
MO   16     MO 0.0        OCC NO =    0.0000000  ORB. ENERGY =   -0.017520
  0.00000000D+00  0.00000000D+00  0.00000000D+00  0.00000000D+00  0.00000000D+00
  0.00000000D+00  0.00000000D+00  0.00000000D+00 -0.00000000D+00  0.00000000D+00
  0.00000000D+00  0.00000000D+00 -0.21695703D-02 -0.18462406D-02 -0.14531516D-02
  0.14128712D+00  0.12023119D+00  0.94632381D-01  0.00000000D+00  0.00000000D+00
 -0.38069215D-03  0.24791494D-01 -0.00000000D+00  0.00000000D+00 -0.60652726D-03
  0.39498391D-01  0.00000000D+00  0.00000000D+00  0.21455325D-03 -0.13972184D-01
  0.00000000D+00  0.00000000D+00  0.00000000D+00  0.38610592D-04 -0.25144466D-02
 -0.00000000D+00 -0.00000000D+00 -0.00000000D+00 -0.00000000D+00 -0.00000000D+00
 -0.00000000D+00 -0.00000000D+00 -0.00000000D+00 -0.00000000D+00  0.00000000D+00
  0.00000000D+00  0.00000000D+00  0.00000000D+00  0.21696575D-02  0.18463148D-02
  0.14532100D-02 -0.14129310D+00 -0.12023627D+00 -0.94636382D-01 -0.00000000D+00
 -0.00000000D+00  0.38072775D-03 -0.24793883D-01  0.00000000D+00  0.00000000D+00
  0.60653870D-03 -0.39499134D-01 -0.00000000D+00  0.00000000D+00 -0.21456019D-03
  0.13972635D-01  0.00000000D+00 -0.00000000D+00 -0.00000000D+00  0.38605374D-04
 -0.25141284D-02 -0.00000000D+00
MO   17     MO 0.0        OCC NO =    0.0000000  ORB. ENERGY =   -0.017520
 -0.00000000D+00 -0.00000000D+00 -0.00000000D+00 -0.00000000D+00 -0.00000000D+00
 -0.00000000D+00 -0.00000000D+00 -0.00000000D+00  0.00000000D+00 -0.00000000D+00
 -0.00000000D+00 -0.00000000D+00 -0.14128712D+00 -0.12023119D+00 -0.94632381D-01
 -0.21695703D-02 -0.18462406D-02 -0.14531516D-02 -0.00000000D+00  0.00000000D+00
 -0.24791494D-01 -0.38069215D-03  0.00000000D+00 -0.00000000D+00 -0.39498391D-01
 -0.60652726D-03 -0.00000000D+00 -0.00000000D+00  0.13972184D-01  0.21455325D-03
  0.00000000D+00 -0.00000000D+00  0.00000000D+00  0.25144466D-02  0.38610592D-04
 -0.00000000D+00  0.00000000D+00  0.00000000D+00  0.00000000D+00  0.00000000D+00
  0.00000000D+00  0.00000000D+00  0.00000000D+00  0.00000000D+00 -0.00000000D+00
 -0.00000000D+00 -0.00000000D+00 -0.00000000D+00  0.14129310D+00  0.12023627D+00
  0.94636382D-01  0.21696575D-02  0.18463148D-02  0.14532100D-02 -0.00000000D+00
  0.00000000D+00  0.24793883D-01  0.38072775D-03 -0.00000000D+00 -0.00000000D+00
  0.39499134D-01  0.60653870D-03  0.00000000D+00 -0.00000000D+00 -0.13972635D-01
 -0.21456019D-03 -0.00000000D+00  0.00000000D+00  0.00000000D+00  0.25141284D-02
  0.38605374D-04  0.00000000D+00
MO   18     MO 0.0        OCC NO =    0.0000000  ORB. ENERGY =    0.075019
 -0.19140603D-01 -0.35436097D-01 -0.57388310D-01 -0.73595233D-01 -0.66763324D-01
 -0.32437886D-02 -0.29140179D-01 -0.77032676D-01  0.94789300D-04  0.98725914D-01
  0.84012850D-01  0.66125406D-01 -0.00000000D+00 -0.00000000D+00 -0.00000000D+00
  0.00000000D+00  0.00000000D+00  0.00000000D+00  0.23958028D-01  0.10021728D-01
 -0.00000000D+00 -0.00000000D+00  0.26506273D+00  0.10355927D+00  0.00000000D+00
  0.00000000D+00 -0.12264884D+00 -0.16353474D-01  0.00000000D+00 -0.00000000D+00
 -0.94090402D-02 -0.15870489D-02 -0.15870489D-02  0.00000000D+00  0.00000000D+00
 -0.00000000D+00  0.19139957D-01  0.35434901D-01  0.57386372D-01  0.73592748D-01
  0.66761070D-01  0.32436791D-02  0.29139433D-01  0.77030703D-01 -0.94786872D-04
  0.98730841D-01  0.84017042D-01  0.66128706D-01  0.00000000D+00  0.00000000D+00
  0.00000000D+00 -0.00000000D+00 -0.00000000D+00 -0.00000000D+00 -0.23957065D-01
  0.10029089D-01 -0.00000000D+00  0.00000000D+00 -0.26506421D+00  0.10355597D+00
  0.00000000D+00 -0.00000000D+00  0.12264922D+00 -0.16352981D-01 -0.00000000D+00
  0.00000000D+00  0.94092782D-02  0.15871678D-02  0.15871678D-02 -0.00000000D+00
 -0.00000000D+00 -0.00000000D+00
MO   19     MO 0.0        OCC NO =    0.0000000  ORB. ENERGY =    0.141964
  0.14431248D-01  0.26717398D-01  0.43268486D-01  0.55487857D-01  0.50336871D-01
  0.24456866D-02  0.11520080D-01  0.30453573D-01 -0.37473356D-04 -0.55718001D-01
 -0.47414380D-01 -0.37319233D-01 -0.00000000D+00 -0.00000000D+00 -0.00000000D+00
 -0.00000000D+00 -0.00000000D+00 -0.00000000D+00 -0.15065672D+00 -0.87047529D-01
 -0.00000000D+00 -0.00000000D+00  0.90782203D-01  0.49157916D-01  0.00000000D+00
  0.00000000D+00 -0.10483056D-01 -0.95241451D-02 -0.00000000D+00 -0.00000000D+00
 -0.23372758D-01 -0.12284342D-01 -0.12284342D-01 -0.00000000D+00 -0.00000000D+00
  0.00000000D+00  0.14430007D-01  0.26715100D-01  0.43264765D-01  0.55483085D-01
  0.50332542D-01  0.24454763D-02  0.11518246D-01  0.30448726D-01 -0.37467391D-04
  0.55709892D-01  0.47407479D-01  0.37313802D-01 -0.00000000D+00 -0.00000000D+00
 -0.00000000D+00 -0.00000000D+00 -0.00000000D+00 -0.00000000D+00 -0.15065349D+00
  0.87043204D-01 -0.00000000D+00 -0.00000000D+00  0.90789963D-01 -0.49159714D-01
  0.00000000D+00  0.00000000D+00 -0.10506416D-01  0.95264854D-02  0.00000000D+00
 -0.00000000D+00 -0.23373519D-01 -0.12284131D-01 -0.12284131D-01  0.00000000D+00
  0.00000000D+00  0.00000000D+00
MO   20     MO 0.0        OCC NO =    0.0000000  ORB. ENERGY =    0.156417
 -0.00000000D+00 -0.00000000D+00 -0.00000000D+00 -0.00000000D+00 -0.00000000D+00
 -0.00000000D+00 -0.00000000D+00 -0.00000000D+00  0.00000000D+00 -0.00000000D+00
 -0.00000000D+00 -0.00000000D+00 -0.28328947D-03 -0.24107101D-03 -0.18974381D-03
 -0.11245131D+00 -0.95692754D-01 -0.75318505D-01  0.00000000D+00 -0.00000000D+00
 -0.31930813D-03 -0.12674986D+00 -0.00000000D+00  0.00000000D+00  0.11529395D-03
  0.45766178D-01  0.00000000D+00  0.00000000D+00 -0.12573517D-04 -0.49910972D-02
  0.00000000D+00  0.00000000D+00  0.00000000D+00 -0.32876785D-04 -0.13050226D-01
 -0.00000000D+00 -0.00000000D+00 -0.00000000D+00 -0.00000000D+00 -0.00000000D+00
 -0.00000000D+00 -0.00000000D+00 -0.00000000D+00 -0.00000000D+00  0.00000000D+00
  0.00000000D+00  0.00000000D+00  0.00000000D+00 -0.28325314D-03 -0.24104009D-03
 -0.18971947D-03 -0.11243760D+00 -0.95681092D-01 -0.75309325D-01  0.00000000D+00
 -0.00000000D+00 -0.31927550D-03 -0.12673674D+00 -0.00000000D+00  0.00000000D+00
  0.11527856D-03  0.45760061D-01 -0.00000000D+00  0.00000000D+00 -0.12571502D-04
 -0.49902702D-02  0.00000000D+00  0.00000000D+00  0.00000000D+00  0.32876785D-04
  0.13050641D-01  0.00000000D+00
MO   21     MO 0.0        OCC NO =    0.0000000  ORB. ENERGY =    0.156417
  0.00000000D+00  0.00000000D+00  0.00000000D+00  0.00000000D+00  0.00000000D+00
  0.00000000D+00  0.00000000D+00  0.00000000D+00 -0.00000000D+00  0.00000000D+00
  0.00000000D+00  0.00000000D+00  0.11245131D+00  0.95692754D-01  0.75318505D-01
 -0.28328947D-03 -0.24107101D-03 -0.18974381D-03 -0.00000000D+00 -0.00000000D+00
  0.12674986D+00 -0.31930813D-03  0.00000000D+00  0.00000000D+00 -0.45766178D-01
  0.11529395D-03 -0.00000000D+00 -0.00000000D+00  0.49910972D-02 -0.12573517D-04
 -0.00000000D+00 -0.00000000D+00 -0.00000000D+00  0.13050226D-01 -0.32876785D-04
  0.00000000D+00  0.00000000D+00  0.00000000D+00  0.00000000D+00  0.00000000D+00
  0.00000000D+00  0.00000000D+00  0.00000000D+00  0.00000000D+00 -0.00000000D+00
  0.00000000D+00  0.00000000D+00  0.00000000D+00  0.11243760D+00  0.95681092D-01
  0.75309325D-01 -0.28325314D-03 -0.24104009D-03 -0.18971947D-03 -0.00000000D+00
  0.00000000D+00  0.12673674D+00 -0.31927550D-03  0.00000000D+00 -0.00000000D+00
 -0.45760061D-01  0.11527856D-03 -0.00000000D+00  0.00000000D+00  0.49902702D-02
 -0.12571502D-04 -0.00000000D+00 -0.00000000D+00 -0.00000000D+00 -0.13050641D-01
  0.32876785D-04  0.00000000D+00
MO   22     MO 0.0        OCC NO =    0.0000000  ORB. ENERGY =    0.177256
  0.29381445D-01  0.54395556D-01  0.88092914D-01  0.11297107D+00  0.10248386D+00
  0.49793205D-02  0.30919796D-01  0.81737132D-01 -0.10057817D-03  0.71376564D-01
  0.60739357D-01  0.47807146D-01 -0.00000000D+00 -0.00000000D+00 -0.00000000D+00
 -0.00000000D+00 -0.00000000D+00 -0.00000000D+00 -0.19886478D+00  0.65523761D-01
 -0.00000000D+00 -0.00000000D+00  0.15541640D+00 -0.30869339D-01  0.00000000D+00
  0.00000000D+00 -0.27940225D-01  0.31277121D-02 -0.00000000D+00 -0.00000000D+00
 -0.20872058D-01 -0.18136275D-01 -0.18136275D-01 -0.00000000D+00 -0.00000000D+00
  0.00000000D+00  0.29380927D-01  0.54394598D-01  0.88091361D-01  0.11296907D+00
  0.10248206D+00  0.49792327D-02  0.30920024D-01  0.81737733D-01 -0.10057891D-03
 -0.71357431D-01 -0.60723075D-01 -0.47794332D-01 -0.00000000D+00 -0.00000000D+00
 -0.00000000D+00  0.00000000D+00  0.00000000D+00  0.00000000D+00 -0.19885395D+00
 -0.65508623D-01 -0.00000000D+00  0.00000000D+00  0.15539399D+00  0.30868992D-01
 -0.00000000D+00 -0.00000000D+00 -0.27905845D-01 -0.31306695D-02  0.00000000D+00
  0.00000000D+00 -0.20869603D-01 -0.18135179D-01 -0.18135179D-01  0.00000000D+00
  0.00000000D+00  0.00000000D+00
MO   23     MO 0.0        OCC NO =    0.0000000  ORB. ENERGY =    0.190791
 -0.00000000D+00 -0.00000000D+00 -0.00000000D+00 -0.00000000D+00 -0.00000000D+00
 -0.00000000D+00 -0.00000000D+00 -0.00000000D+00  0.00000000D+00 -0.00000000D+00
 -0.00000000D+00 -0.00000000D+00 -0.42056787D-01 -0.35789089D-01 -0.28169120D-01
 -0.12636049D+00 -0.10752906D+00 -0.84634709D-01  0.00000000D+00 -0.00000000D+00
 -0.40305265D-01 -0.12109800D+00 -0.00000000D+00  0.00000000D+00  0.21923982D-01
  0.65871057D-01 -0.00000000D+00 -0.00000000D+00 -0.36981962D-02 -0.11111307D-01