[Molden Format]
[Atoms] AU
BE       1       4     0.00000000     0.00000000     0.00000000
BE       2       4     4.54000000     0.00000000     0.00000000
[GTO]
  1 0
s  6 1.00
   1.6828000000E+03   2.2857400000E-03
   2.5171500000E+02   1.7593800000E-02
   5.7411600000E+01   8.6331500000E-02
   1.6517100000E+01   2.8183500000E-01
   4.8536400000E+00   6.4059400000E-01
   6.2686300000E-01   1.4446700000E-01
s  3 1.00
   8.3093800000E+00   1.0862100000E-01
   1.7407500000E+00   9.2730100000E-01
   4.8581600000E-01  -2.9716900000E-03
p  3 1.00
   8.3093800000E+00   3.6134400000E-02
   1.7407500000E+00   2.1695800000E-01
   4.8581600000E-01   8.4183900000E-01
s  1 1.00
   1.6361300000E-01   1.0000000000E+00
p  1 1.00
   1.6361300000E-01   1.0000000000E+00
s  1 1.00
   5.6728500000E-02   1.0000000000E+00
p  1 1.00
   5.6728500000E-02   1.0000000000E+00
s  1 1.00
   2.0700000000E-02   1.0000000000E+00
p  1 1.00
   2.0700000000E-02   1.0000000000E+00
d  1 1.00
   2.5500000000E-01   1.0000000000E+00
 
  2 0
s  6 1.00
   1.6828000000E+03   2.2857400000E-03
   2.5171500000E+02   1.7593800000E-02
   5.7411600000E+01   8.6331500000E-02
   1.6517100000E+01   2.8183500000E-01
   4.8536400000E+00   6.4059400000E-01
   6.2686300000E-01   1.4446700000E-01
s  3 1.00
   8.3093800000E+00   1.0862100000E-01
   1.7407500000E+00   9.2730100000E-01
   4.8581600000E-01  -2.9716900000E-03
p  3 1.00
   8.3093800000E+00   3.6134400000E-02
   1.7407500000E+00   2.1695800000E-01
   4.8581600000E-01   8.4183900000E-01
s  1 1.00
   1.6361300000E-01   1.0000000000E+00
p  1 1.00
   1.6361300000E-01   1.0000000000E+00
s  1 1.00
   5.6728500000E-02   1.0000000000E+00
p  1 1.00
   5.6728500000E-02   1.0000000000E+00
s  1 1.00
   2.0700000000E-02   1.0000000000E+00
p  1 1.00
   2.0700000000E-02   1.0000000000E+00
d  1 1.00
   2.5500000000E-01   1.0000000000E+00
 
 
[MO]
Ene=    -4.10232E+00
Spin= Alpha
Occup=   2.0000000000
   1      -0.42214495
   2      -0.30791042
   3      -0.00013411
   4      -0.00000000
   5       0.00000000
   6      -0.02470044
   7      -0.00005350
   8       0.00000000
   9      -0.00000000
  10      -0.00179487
  11      -0.00012388
  12      -0.00000000
  13       0.00000000
  14       0.00076395
  15       0.00029693
  16       0.00000000
  17      -0.00000000
  18       0.00856757
  19       0.00896177
  20       0.00896177
  21       0.00000000
  22       0.00000000
  23      -0.00000000
  24      -0.42083532
  25      -0.30695539
  26       0.00013320
  27       0.00000000
  28      -0.00000000
  29      -0.02462464
  30       0.00005945
  31      -0.00000000
  32       0.00000000
  33      -0.00177689
  34       0.00011693
  35       0.00000000
  36      -0.00000000
  37       0.00072624
  38      -0.00028495
  39      -0.00000000
  40       0.00000000
  41       0.00853550
  42       0.00893378
  43       0.00893378
  44       0.00000000
  45      -0.00000000
  46       0.00000000
Ene=    -4.10227E+00
Spin= Alpha
Occup=   2.0000000000
   1       0.42088258
   2       0.30693113
   3       0.00027721
   4       0.00000000
   5       0.00000000
   6       0.02437702
   7      -0.00189632
   8      -0.00000000
   9      -0.00000000
  10       0.00578226
  11       0.00222781
  12       0.00000000
  13       0.00000000
  14      -0.01214308
  15      -0.00385655
  16      -0.00000000
  17      -0.00000000
  18      -0.01030829
  19      -0.00899879
  20      -0.00899879
  21      -0.00000000
  22       0.00000000
  23       0.00000000
  24      -0.42219202
  25      -0.30788625
  26       0.00027757
  27       0.00000000
  28       0.00000000
  29      -0.02445369
  30      -0.00189612
  31      -0.00000000
  32       0.00000000
  33      -0.00578780
  34       0.00222817
  35       0.00000000
  36      -0.00000000
  37       0.01214540
  38      -0.00385744
  39       0.00000000
  40       0.00000000
  41       0.01033487
  42       0.00902660
  43       0.00902660
  44       0.00000000
  45       0.00000000
  46      -0.00000000
Ene=    -3.20235E-01
Spin= Alpha
Occup=   2.0000000000
   1      -0.08394656
   2      -0.12509935
   3       0.06273278
   4      -0.00000000
   5       0.00000000
   6       0.39769961
   7       0.08619488
   8      -0.00000000
   9      -0.00000000
  10       0.18069528
  11       0.03039858
  12      -0.00000000
  13       0.00000000
  14       0.03806398
  15       0.01618159
  16      -0.00000000
  17      -0.00000000
  18       0.01243502
  19      -0.01474849
  20      -0.01474849
  21      -0.00000000
  22      -0.00000000
  23       0.00000000
  24      -0.08394684
  25      -0.12509978
  26      -0.06273261
  27      -0.00000000
  28      -0.00000000
  29       0.39770179
  30      -0.08619388
  31       0.00000000
  32      -0.00000000
  33       0.18069664
  34      -0.03039748
  35      -0.00000000
  36      -0.00000000
  37       0.03803069
  38      -0.01617394
  39       0.00000000
  40       0.00000000
  41       0.01243508
  42      -0.01474822
  43      -0.01474822
  44      -0.00000000
  45      -0.00000000
  46      -0.00000000
Ene=    -2.04144E-01
Spin= Alpha
Occup=   2.0000000000
   1      -0.08133856
   2      -0.12411722
   3      -0.06296388
   4       0.00000000
   5      -0.00000000
   6       0.40578195
   7      -0.08743044
   8       0.00000000
   9      -0.00000000
  10       0.46182837
  11       0.02813398
  12       0.00000000
  13      -0.00000000
  14       0.48176862
  15       0.07972977
  16       0.00000000
  17       0.00000000
  18      -0.01051827
  19      -0.00460919
  20      -0.00460919
  21       0.00000000
  22      -0.00000000
  23       0.00000000
  24       0.08133915
  25       0.12411823
  26      -0.06296215
  27       0.00000000
  28      -0.00000000
  29      -0.40578362
  30      -0.08742910
  31      -0.00000000
  32      -0.00000000
  33      -0.46184828
  34       0.02813271
  35      -0.00000000
  36      -0.00000000
  37      -0.48173190
  38       0.07975207
  39      -0.00000000
  40      -0.00000000
  41       0.01051789
  42       0.00460984
  43       0.00460984
  44       0.00000000
  45       0.00000000
  46       0.00000000
Ene=    -1.34266E-01
Spin= Alpha
Occup=   0.0000000000
   1      -0.00000000
   2       0.00000000
   3       0.00000000
   4      -0.05091707
   5      -0.06849645
   6       0.00000000
   7       0.00000000
   8      -0.11333146
   9      -0.15245973
  10      -0.00000000
  11      -0.00000000
  12       0.04019482
  13       0.05407229
  14       0.00000000
  15       0.00000000
  16      -0.28807045
  17      -0.38752825
  18       0.00000000
  19       0.00000000
  20       0.00000000
  21      -0.00930899
  22      -0.01252297
  23       0.00000000
  24      -0.00000000
  25      -0.00000000
  26      -0.00000000
  27      -0.05091606
  28      -0.06849509
  29      -0.00000000
  30      -0.00000000
  31      -0.11332178
  32      -0.15244670
  33       0.00000000
  34      -0.00000000
  35       0.04016122
  36       0.05402709
  37      -0.00000000
  38       0.00000000
  39      -0.28790482
  40      -0.38730544
  41      -0.00000000
  42      -0.00000000
  43      -0.00000000
  44       0.00930954
  45       0.01252371
  46       0.00000000
Ene=    -1.34266E-01
Spin= Alpha
Occup=   0.0000000000
   1      -0.00000000
   2      -0.00000000
   3      -0.00000000
   4       0.06849645
   5      -0.05091707
   6      -0.00000000
   7       0.00000000
   8       0.15245973
   9      -0.11333146
  10       0.00000000
  11       0.00000000
  12      -0.05407229
  13       0.04019482
  14      -0.00000000
  15      -0.00000000
  16       0.38752825
  17      -0.28807045
  18      -0.00000000
  19      -0.00000000
  20      -0.00000000
  21       0.01252297
  22      -0.00930899
  23       0.00000000
  24      -0.00000000
  25       0.00000000
  26      -0.00000000
  27       0.06849509
  28      -0.05091606
  29       0.00000000
  30       0.00000000
  31       0.15244670
  32      -0.11332178
  33      -0.00000000
  34       0.00000000
  35      -0.05402709
  36       0.04016122
  37       0.00000000
  38      -0.00000000
  39       0.38730544
  40      -0.28790482
  41       0.00000000
  42       0.00000000
  43       0.00000000
  44      -0.01252371
  45       0.00930954
  46      -0.00000000
Ene=    -1.18451E-01
Spin= Alpha
Occup=   0.0000000000
   1      -0.00194330
   2      -0.01020735
   3       0.12790201
   4       0.00000000
   5       0.00000000
   6      -0.08286763
   7       0.19735958
   8       0.00000000
   9       0.00000000
  10       0.60114393
  11       0.12109032
  12       0.00000000
  13      -0.00000000
  14      -0.74322702
  15      -0.15600165
  16       0.00000000
  17       0.00000000
  18      -0.01157503
  19      -0.03648650
  20      -0.03648650
  21       0.00000000
  22       0.00000000
  23      -0.00000000
  24      -0.00193582
  25      -0.01019573
  26      -0.12790972
  27       0.00000000
  28       0.00000000
  29      -0.08290589
  30      -0.19735186
  31       0.00000000
  32       0.00000000
  33       0.60114162
  34      -0.12121084
  35       0.00000000
  36       0.00000000
  37      -0.74391567
  38       0.15639622
  39       0.00000000
  40       0.00000000
  41      -0.01157283
  42      -0.03648628
  43      -0.03648628
  44      -0.00000000
  45      -0.00000000
  46      -0.00000000
Ene=    -9.44702E-02
Spin= Alpha
Occup=   0.0000000000
   1       0.02644569
   2       0.05027196
   3       0.10990695
   4      -0.00000000
   5      -0.00000000
   6       0.00193849
   7       0.19299697
   8      -0.00000000
   9      -0.00000000
  10      -1.07158849
  11       0.07121877
  12      -0.00000000
  13       0.00000000
  14       0.61878522
  15       0.79492012
  16      -0.00000000
  17       0.00000000
  18       0.03670697
  19       0.04114328
  20       0.04114328
  21      -0.00000000
  22       0.00000000
  23       0.00000000
  24       0.02645172
  25       0.05027858
  26      -0.10991210
  27      -0.00000000
  28      -0.00000000
  29       0.00185355
  30      -0.19298355
  31      -0.00000000
  32      -0.00000000
  33      -1.07104810
  34      -0.07148285
  35      -0.00000000
  36      -0.00000000
  37       0.61179403
  38      -0.79229323
  39       0.00000000
  40      -0.00000000
  41       0.03670362
  42       0.04112879
  43       0.04112879
  44       0.00000000
  45       0.00000000
  46       0.00000000
Ene=    -8.26278E-02
Spin= Alpha
Occup=   0.0000000000
   1       0.00000000
   2       0.00000000
   3       0.00000000
   4       0.00440904
   5      -0.15546659
   6      -0.00000000
   7      -0.00000000
   8       0.00240379
   9      -0.08475971
  10       0.00000000
  11       0.00000000
  12       0.01891114
  13      -0.66682265
  14      -0.00000000
  15      -0.00000000
  16      -0.01810328
  17       0.63833684
  18      -0.00000000
  19      -0.00000000
  20      -0.00000000
  21       0.00055973
  22      -0.01973669
  23       0.00000000
  24      -0.00000000
  25      -0.00000000
  26       0.00000000
  27       0.00440998
  28      -0.15549949
  29       0.00000000
  30      -0.00000000
  31       0.00240815
  32      -0.08491322
  33      -0.00000000
  34       0.00000000
  35       0.01890216
  36      -0.66650586
  37       0.00000000
  38      -0.00000000
  39      -0.01805410
  40       0.63660270
  41       0.00000000
  42       0.00000000
  43       0.00000000
  44      -0.00055940
  45       0.01972496
  46      -0.00000000
Ene=    -8.26278E-02
Spin= Alpha
Occup=   0.0000000000
   1       0.00000000
   2       0.00000000
   3       0.00000000
   4       0.15546659
   5       0.00440904
   6      -0.00000000
   7      -0.00000000
   8       0.08475971
   9       0.00240379
  10      -0.00000000
  11       0.00000000
  12       0.66682265
  13       0.01891114
  14       0.00000000
  15       0.00000000
  16      -0.63833684
  17      -0.01810328
  18       0.00000000
  19      -0.00000000
  20       0.00000000
  21       0.01973669
  22       0.00055973
  23       0.00000000
  24      -0.00000000
  25       0.00000000
  26      -0.00000000
  27       0.15549949
  28       0.00440998
  29       0.00000000
  30      -0.00000000
  31       0.08491322
  32       0.00240815
  33      -0.00000000
  34       0.00000000
  35       0.66650586
  36       0.01890216
  37      -0.00000000
  38       0.00000000
  39      -0.63660270
  40      -0.01805410
  41       0.00000000
  42       0.00000000
  43       0.00000000
  44      -0.01972496
  45      -0.00055940
  46      -0.00000000
Ene=    -8.00262E-02
Spin= Alpha
Occup=   0.0000000000
   1      -0.01720840
   2      -0.02126324
   3      -0.01813293
   4      -0.00000000
   5      -0.00000000
   6       0.20310314
   7       0.05573986
   8      -0.00000000
   9      -0.00000000
  10      -1.19087229
  11      -0.76335889
  12       0.00000000
  13      -0.00000000
  14      14.64243843
  15       5.68296750
  16      -0.00000000
  17       0.00000000
  18       0.00241693
  19       0.03085432
  20       0.03085432
  21       0.00000000
  22      -0.00000000
  23      -0.00000000
  24       0.01718709
  25       0.02122577
  26      -0.01797806
  27       0.00000000
  28      -0.00000000
  29      -0.20303351
  30       0.05585742
  31       0.00000000
  32      -0.00000000
  33       1.19147727
  34      -0.76282420
  35      -0.00000000
  36      -0.00000000
  37     -14.64308672
  38       5.68215971
  39       0.00000000
  40       0.00000000
  41      -0.00245331
  42      -0.03086451
  43      -0.03086451
  44       0.00000000
  45       0.00000000
  46       0.00000000
Ene=    -7.47402E-02
Spin= Alpha
Occup=   0.0000000000
   1      -0.00000000
   2      -0.00000000
   3      -0.00000000
   4       0.00018000
   5      -0.04579866
   6       0.00000000
   7       0.00000000
   8       0.00065086
   9      -0.16560333
  10      -0.00000000
  11      -0.00000000
  12      -0.00102760
  13       0.26146089
  14       0.00000000
  15       0.00000000
  16       0.00690634
  17      -1.75723887
  18      -0.00000000
  19       0.00000000
  20       0.00000000
  21      -0.00004934
  22       0.01255491
  23      -0.00000000
  24       0.00000000
  25       0.00000000
  26      -0.00000000
  27      -0.00017947
  28       0.04566372
  29      -0.00000000
  30       0.00000000
  31      -0.00065063
  32       0.16554663
  33       0.00000000
  34      -0.00000000
  35       0.00103009
  36      -0.26209383
  37      -0.00000000
  38       0.00000000
  39      -0.00690896
  40       1.75790648
  41       0.00000000
  42      -0.00000000
  43      -0.00000000
  44      -0.00004941
  45       0.01257194
  46       0.00000000
Ene=    -7.47402E-02
Spin= Alpha
Occup=   0.0000000000
   1       0.00000000
   2       0.00000000
   3       0.00000000
   4      -0.04579866
   5      -0.00018000
   6      -0.00000000
   7      -0.00000000
   8      -0.16560333
   9      -0.00065086
  10       0.00000000
  11       0.00000000
  12       0.26146089
  13       0.00102760
  14      -0.00000000
  15      -0.00000000
  16      -1.75723887
  17      -0.00690634
  18      -0.00000000
  19      -0.00000000
  20      -0.00000000
  21       0.01255491
  22       0.00004934
  23      -0.00000000
  24      -0.00000000
  25      -0.00000000
  26       0.00000000
  27       0.04566372
  28       0.00017947
  29       0.00000000
  30      -0.00000000
  31       0.16554663
  32       0.00065063
  33      -0.00000000
  34       0.00000000
  35      -0.26209383
  36      -0.00103009
  37       0.00000000
  38      -0.00000000
  39       1.75790648
  40       0.00690896
  41      -0.00000000
  42       0.00000000
  43       0.00000000
  44       0.01257194
  45       0.00004941
  46       0.00000000
Ene=    -5.53429E-02
Spin= Alpha
Occup=   0.0000000000
   1      -0.01345150
   2      -0.02290670
   3      -0.11209425
   4       0.00000000
   5       0.00000000
   6       0.07263031
   7      -0.02714653
   8      -0.00000000
   9       0.00000000
  10       0.30668242
  11      -0.56542140
  12       0.00000000
  13       0.00000000
  14      -0.63211754
  15       1.34564529
  16       0.00000000
  17       0.00000000
  18      -0.02800830
  19       0.00183837
  20       0.00183837
  21      -0.00000000
  22       0.00000000
  23      -0.00000000
  24      -0.01345947
  25      -0.02291189
  26       0.11209916
  27      -0.00000000
  28       0.00000000
  29       0.07281132
  30       0.02711725
  31      -0.00000000
  32      -0.00000000
  33       0.30530761
  34       0.56597698
  35       0.00000000
  36       0.00000000
  37      -0.61611955
  38      -1.35151191
  39      -0.00000000
  40      -0.00000000
  41      -0.02799849
  42       0.00187710
  43       0.00187710
  44       0.00000000
  45      -0.00000000
  46       0.00000000
Ene=    -3.77931E-02
Spin= Alpha
Occup=   0.0000000000
   1      -0.02577746
   2      -0.05035884
   3      -0.03745647
   4       0.00000000
   5       0.00000000
   6      -0.02895344
   7       0.06607851
   8      -0.00000000
   9       0.00000000
  10       1.69441293
  11      -0.28515019
  12       0.00000000
  13       0.00000000
  14     -19.37336337
  15      -5.92781365
  16      -0.00000000
  17      -0.00000000
  18      -0.02746755
  19      -0.04914007
  20      -0.04914007
  21      -0.00000000
  22      -0.00000000
  23      -0.00000000
  24       0.02578195
  25       0.05036688
  26      -0.03747500
  27      -0.00000000
  28      -0.00000000
  29       0.02893289
  30       0.06609149
  31      -0.00000000
  32      -0.00000000
  33      -1.69456089
  34      -0.28528519
  35      -0.00000000
  36      -0.00000000
  37      19.37358099
  38      -5.92757205
  39       0.00000000
  40       0.00000000
  41       0.02747446
  42       0.04914258
  43       0.04914258
  44      -0.00000000
  45       0.00000000
  46      -0.00000000
Ene=    -1.75196E-02
Spin= Alpha
Occup=   0.0000000000
   1       0.00000000
   2       0.00000000
   3       0.00000000
   4      -0.00298574
   5       0.19443786
   6       0.00000000
   7       0.00000000
   8      -0.00256662
   9       0.16714383
  10      -0.00000000
  11       0.00000000
  12      -0.01536946
  13       1.00089310
  14       0.00000000
  15       0.00000000
  16       0.01917044
  17      -1.24842162
  18       0.00000000
  19       0.00000000
  20       0.00000000
  21       0.00014801
  22      -0.00963889
  23      -0.00000000
  24      -0.00000000
  25      -0.00000000
  26       0.00000000
  27       0.00298586
  28      -0.19444608
  29      -0.00000000
  30      -0.00000000
  31       0.00256686
  32      -0.16715994
  33       0.00000000
  34       0.00000000
  35       0.01536975
  36      -1.00091193
  37      -0.00000000
  38       0.00000000
  39      -0.01917106
  40       1.24846186
  41       0.00000000
  42      -0.00000000
  43      -0.00000000
  44       0.00014799
  45      -0.00963767
  46      -0.00000000
Ene=    -1.75196E-02
Spin= Alpha
Occup=   0.0000000000
   1      -0.00000000
   2      -0.00000000
   3      -0.00000000
   4      -0.19443786
   5      -0.00298574
   6      -0.00000000
   7       0.00000000
   8      -0.16714383
   9      -0.00256662
  10       0.00000000
  11      -0.00000000
  12      -1.00089310
  13      -0.01536946
  14      -0.00000000
  15      -0.00000000
  16       1.24842162
  17       0.01917044
  18       0.00000000
  19      -0.00000000
  20       0.00000000
  21       0.00963889
  22       0.00014801
  23      -0.00000000
  24       0.00000000
  25       0.00000000
  26      -0.00000000
  27       0.19444608
  28       0.00298586
  29      -0.00000000
  30       0.00000000
  31       0.16715994
  32       0.00256686
  33      -0.00000000
  34      -0.00000000
  35       1.00091193
  36       0.01536975
  37       0.00000000
  38      -0.00000000
  39      -1.24846186
  40      -0.01917106
  41      -0.00000000
  42       0.00000000
  43       0.00000000
  44       0.00963767
  45       0.00014799
  46       0.00000000
Ene=     7.50194E-02
Spin= Alpha
Occup=   0.0000000000
   1      -0.04471922
   2      -0.07691158
   3       0.13586557
   4      -0.00000000
   5       0.00000000
   6       0.13067052
   7       0.06756632
   8      -0.00000000
   9      -0.00000000
  10       3.19954045
  11       2.62420194
  12       0.00000000
  13       0.00000000
  14      -3.15337477
  15      -1.46119103
  16       0.00000000
  17      -0.00000000
  18      -0.06247274
  19      -0.01053745
  20      -0.01053745
  21       0.00000000
  22       0.00000000
  23      -0.00000000
  24       0.04471771
  25       0.07690961
  26       0.13587235
  27       0.00000000
  28      -0.00000000
  29      -0.13066527
  30       0.06761595
  31      -0.00000000
  32       0.00000000
  33      -3.19955833
  34       2.62411848
  35       0.00000000
  36      -0.00000000
  37       3.15338447
  38      -1.46114703
  39      -0.00000000
  40       0.00000000
  41       0.06247432
  42       0.01053824
  43       0.01053824
  44      -0.00000000
  45      -0.00000000
  46      -0.00000000
Ene=     1.41964E-01
Spin= Alpha
Occup=   0.0000000000
   1       0.03371650
   2       0.03040570
   3      -0.07667853
   4      -0.00000000
   5      -0.00000000
   6      -0.82170336
   7      -0.58687296
   8      -0.00000000
   9      -0.00000000
  10       1.09582108
  11       1.24566640
  12       0.00000000
  13       0.00000000
  14      -0.26952562
  15      -0.85098711
  16      -0.00000000
  17      -0.00000000
  18      -0.15518695
  19      -0.08156374
  20      -0.08156374
  21      -0.00000000
  22      -0.00000000
  23       0.00000000
  24       0.03371360
  25       0.03040086
  26       0.07666737
  27      -0.00000000
  28      -0.00000000
  29      -0.82168576
  30       0.58684380
  31      -0.00000000
  32      -0.00000000
  33       1.09591475
  34      -1.24571197
  35       0.00000000
  36       0.00000000
  37      -0.27012622
  38       0.85119622
  39       0.00000000
  40      -0.00000000
  41      -0.15519200
  42      -0.08156234
  43      -0.08156234
  44       0.00000000
  45       0.00000000
  46       0.00000000
Ene=     1.56417E-01
Spin= Alpha
Occup=   0.0000000000
   1      -0.00000000
   2      -0.00000000
   3      -0.00000000
   4      -0.00038986
   5      -0.15475431
   6       0.00000000
   7      -0.00000000
   8      -0.00215277
   9      -0.85454539
  10      -0.00000000
  11       0.00000000
  12       0.00292156
  13       1.15971943
  14       0.00000000
  15       0.00000000
  16      -0.00112345
  17      -0.44595702
  18       0.00000000
  19       0.00000000
  20       0.00000000
  21      -0.00012603
  22      -0.05002679
  23      -0.00000000
  24      -0.00000000
  25      -0.00000000
  26       0.00000000
  27      -0.00038981
  28      -0.15473545
  29       0.00000000
  30      -0.00000000
  31      -0.00215255
  32      -0.85445696
  33      -0.00000000
  34       0.00000000
  35       0.00292117
  36       1.15956441
  37      -0.00000000
  38       0.00000000
  39      -0.00112327
  40      -0.44588313
  41       0.00000000
  42       0.00000000
  43       0.00000000
  44       0.00012603
  45       0.05002838
  46       0.00000000
Ene=     1.56417E-01
Spin= Alpha
Occup=   0.0000000000
   1       0.00000000
   2       0.00000000
   3       0.00000000
   4       0.15475431
   5      -0.00038986
   6      -0.00000000
   7      -0.00000000
   8       0.85454539
   9      -0.00215277
  10       0.00000000
  11       0.00000000
  12      -1.15971943
  13       0.00292156
  14      -0.00000000
  15      -0.00000000
  16       0.44595702
  17      -0.00112345
  18      -0.00000000
  19      -0.00000000
  20      -0.00000000
  21       0.05002679
  22      -0.00012603
  23       0.00000000
  24       0.00000000
  25       0.00000000
  26       0.00000000
  27       0.15473545
  28      -0.00038981
  29      -0.00000000
  30       0.00000000
  31       0.85445696
  32      -0.00215255
  33       0.00000000
  34      -0.00000000
  35      -1.15956441
  36       0.00292117
  37      -0.00000000
  38       0.00000000
  39       0.44588313
  40      -0.00112327
  41      -0.00000000
  42      -0.00000000
  43      -0.00000000
  44      -0.05002838
  45       0.00012603
  46       0.00000000
Ene=     1.77256E-01
Spin= Alpha
Occup=   0.0000000000
   1       0.06864545
   2       0.08160864
   3       0.09822768
   4      -0.00000000
   5      -0.00000000
   6      -1.08463703
   7       0.44176008
   8      -0.00000000
   9      -0.00000000
  10       1.87601267
  11      -0.78223206
  12       0.00000000
  13       0.00000000
  14      -0.71835985
  15       0.27946264
  16      -0.00000000
  17      -0.00000000
  18      -0.13858317
  19      -0.12041853
  20      -0.12041853
  21      -0.00000000
  22      -0.00000000
  23       0.00000000
  24       0.06864424
  25       0.08160924
  26      -0.09820135
  27      -0.00000000
  28       0.00000000
  29      -1.08457794
  30      -0.44165802
  31      -0.00000000
  32       0.00000000
  33       1.87574220
  34       0.78222328
  35      -0.00000000
  36      -0.00000000
  37      -0.71747591
  38      -0.27972688
  39       0.00000000
  40       0.00000000
  41      -0.13856687
  42      -0.12041125
  43      -0.12041125
  44       0.00000000
  45       0.00000000
  46       0.00000000
Ene=     1.90791E-01
Spin= Alpha
Occup=   0.0000000000
   1      -0.00000000
   2      -0.00000000
   3      -0.00000000
   4      -0.05787811
   5      -0.17389599
   6       0.00000000
   7      -0.00000000
   8      -0.27173741
   9      -0.81644068
  10      -0.00000000
  11       0.00000000
  12       0.55555585
  13       1.66917903
  14      -0.00000000
  15      -0.00000000
  16      -0.33043567
  17      -0.99280079
  18       0.00000000
  19       0.00000000
  20       0.00000000
  21       0.00221221
  22       0.00664664
  23      -0.00000000
  24      -0.00000000
  25      -0.00000000
  26       0.00000000
  27       0.05788321
  28       0.17391129
  29       0.00000000
  30       0.00000000
  31       0.27176237
  32       0.81651567
  33      -0.00000000
  34      -0.00000000
  35      -0.55559235
  36      -1.66928871
  37       0.00000000
  38      -0.00000000
  39       0.33045020
  40       0.99284446
  41       0.00000000
  42       0.00000000
  43       0.00000000
  44       0.00221104
  45       0.00664311
  46       0.00000000
Ene=     1.90791E-01
Spin= Alpha
Occup=   0.0000000000
   1      -0.00000000
   2       0.00000000
   3       0.00000000
   4      -0.17389599
   5       0.05787811
   6      -0.00000000
   7       0.00000000
   8      -0.81644068
   9       0.27173741
  10       0.00000000
  11      -0.00000000
  12       1.66917903
  13      -0.55555585
  14      -0.00000000
  15      -0.00000000
  16      -0.99280079
  17       0.33043567
  18       0.00000000
  19       0.00000000
  20       0.00000000
  21       0.00664664
  22      -0.00221221
  23      -0.00000000
  24      -0.00000000
  25       0.00000000
  26       0.00000000
  27       0.17391129
  28      -0.05788321
  29       0.00000000
  30       0.00000000
  31       0.81651567
  32      -0.27176237
  33      -0.00000000
  34       0.00000000
  35      -1.66928871
  36       0.55559235
  37       0.00000000
  38      -0.00000000
  39       0.99284446
  40      -0.33045020
  41       0.00000000
  42       0.00000000
  43      -0.00000000
  44       0.00664311
  45      -0.00221104
  46       0.00000000
Ene=     2.13169E-01
Spin= Alpha
Occup=   0.0000000000
   1      -0.02469781
   2      -0.02389532
   3      -0.21330548
   4      -0.00000000
   5      -0.00000000
   6       0.61541559
   7      -0.86810475
   8      -0.00000000
   9      -0.00000000
  10      -1.34070062
  11       1.03873561
  12       0.00000000
  13       0.00000000
  14       5.32736443
  15       1.26233072
  16      -0.00000000
  17      -0.00000000
  18       0.11546032
  19       0.04981652
  20       0.04981652
  21      -0.00000000
  22      -0.00000000
  23       0.00000000
  24       0.02470432
  25       0.02390378
  26      -0.21331799
  27       0.00000000
  28       0.00000000
  29      -0.61551821
  30      -0.86816005
  31       0.00000000
  32       0.00000000
  33       1.34088766
  34       1.03884903
  35      -0.00000000
  36      -0.00000000
  37      -5.32744403
  38       1.26227581
  39       0.00000000
  40       0.00000000
  41      -0.11547028
  42      -0.04982631
  43      -0.04982631
  44      -0.00000000
  45       0.00000000
  46      -0.00000000
Ene=     2.56402E-01
Spin= Alpha
Occup=   0.0000000000
   1      -0.07875431
   2      -0.09463254
   3       0.15835316
   4      -0.00000000
   5      -0.00000000
   6       1.58270414
   7       0.35939571
   8      -0.00000000
   9      -0.00000000
  10      -6.34090270
  11      -2.76029884
  12       0.00000000
  13       0.00000000
  14       9.55597202
  15       3.12949296
  16      -0.00000000
  17      -0.00000000
  18       0.08633785
  19       0.19761290
  20       0.19761290
  21      -0.00000000
  22      -0.00000000
  23       0.00000000
  24       0.07875462
  25       0.09463296
  26       0.15835631
  27      -0.00000000
  28       0.00000000
  29      -1.58271553
  30       0.35940347
  31      -0.00000000
  32       0.00000000
  33       6.34091871
  34      -2.76031575
  35       0.00000000
  36      -0.00000000
  37      -9.55598185
  38       3.12949384
  39      -0.00000000
  40      -0.00000000
  41      -0.08634148
  42      -0.19761244
  43      -0.19761244
  44       0.00000000
  45       0.00000000
  46      -0.00000000
Ene=     4.23508E-01
Spin= Alpha
Occup=   0.0000000000
   1       0.00000000
   2      -0.00000000
   3      -0.00000000
   4       0.04170717
   5      -0.07045872
   6       0.00000000
   7      -0.00000000
   8       0.04757936
   9      -0.08037900
  10      -0.00000000
  11      -0.00000000
  12       0.00040426
  13      -0.00068295
  14       0.00000000
  15       0.00000000