 Molden2AIM, Version 3.1.0 (02/25/2015)           Time: Mon Dec  2 17:24:14 2024
GAUSSIAN             68 MOL ORBITALS     68 PRIMITIVES        2 NUCLEI
  Be   1    (CENTRE  1)   0.00000000  0.00000000  0.00000000  CHARGE =  4.0
  Be   2    (CENTRE  2)   4.54000000  0.00000000  0.00000000  CHARGE =  4.0
CENTRE ASSIGNMENTS    1  1  1  1  1  1  1  1  1  1  1  1  1  1  1  1  1  1  1  1
CENTRE ASSIGNMENTS    1  1  1  1  1  1  1  1  1  1  1  1  1  1  2  2  2  2  2  2
CENTRE ASSIGNMENTS    2  2  2  2  2  2  2  2  2  2  2  2  2  2  2  2  2  2  2  2
CENTRE ASSIGNMENTS    2  2  2  2  2  2  2  2
TYPE ASSIGNMENTS      1  1  1  1  1  1  1  1  1  1  2  3  4  2  3  4  2  3  4  2
TYPE ASSIGNMENTS      3  4  5  6  7  8  9 10  5  6  7  8  9 10  1  1  1  1  1  1
TYPE ASSIGNMENTS      1  1  1  1  2  3  4  2  3  4  2  3  4  2  3  4  5  6  7  8
TYPE ASSIGNMENTS      9 10  5  6  7  8  9 10
EXPONENTS  0.1000000D-03 0.3000000D-03 0.9000000D-03 0.2700000D-02 0.8100000D-02
EXPONENTS  0.2430000D-01 0.7290000D-01 0.2187000D+00 0.6561000D+00 0.1968300D+01
EXPONENTS  0.1000000D-03 0.1000000D-03 0.1000000D-03 0.3000000D-03 0.3000000D-03
EXPONENTS  0.3000000D-03 0.9000000D-03 0.9000000D-03 0.9000000D-03 0.2700000D-02
EXPONENTS  0.2700000D-02 0.2700000D-02 0.1000000D-03 0.1000000D-03 0.1000000D-03
EXPONENTS  0.1000000D-03 0.1000000D-03 0.1000000D-03 0.3000000D-03 0.3000000D-03
EXPONENTS  0.3000000D-03 0.3000000D-03 0.3000000D-03 0.3000000D-03 0.1000000D-03
EXPONENTS  0.3000000D-03 0.9000000D-03 0.2700000D-02 0.8100000D-02 0.2430000D-01
EXPONENTS  0.7290000D-01 0.2187000D+00 0.6561000D+00 0.1968300D+01 0.1000000D-03
EXPONENTS  0.1000000D-03 0.1000000D-03 0.3000000D-03 0.3000000D-03 0.3000000D-03
EXPONENTS  0.9000000D-03 0.9000000D-03 0.9000000D-03 0.2700000D-02 0.2700000D-02
EXPONENTS  0.2700000D-02 0.1000000D-03 0.1000000D-03 0.1000000D-03 0.1000000D-03
EXPONENTS  0.1000000D-03 0.1000000D-03 0.3000000D-03 0.3000000D-03 0.3000000D-03
EXPONENTS  0.3000000D-03 0.3000000D-03 0.3000000D-03
MO    1     MO 0.0        OCC NO =    1.0000000  ORB. ENERGY =   -0.046842
 -0.20339709D-04 -0.41194962D-04  0.53110029D-02  0.14800749D+00  0.11525017D-02
  0.58189063D-01 -0.22978015D-01 -0.21755564D-01  0.35553440D-02 -0.46715458D-02
  0.46582287D-07  0.00000000D+00 -0.00000000D+00 -0.79099838D-07  0.00000000D+00
 -0.00000000D+00  0.19000190D-04 -0.00000000D+00  0.00000000D+00  0.18331609D-02
  0.00000000D+00 -0.00000000D+00  0.29996910D-08  0.96255325D-08  0.96255325D-08
  0.00000000D+00 -0.00000000D+00 -0.00000000D+00  0.11138530D-06  0.50537498D-07
  0.50537498D-07  0.00000000D+00 -0.00000000D+00  0.00000000D+00 -0.20180441D-04
 -0.40912116D-04 -0.49888533D-02 -0.14885941D+00  0.80488113D-02 -0.29346604D-01
  0.36531017D-02 -0.98784338D-02 -0.79108554D-04 -0.12000148D-02  0.87631556D-07
 -0.00000000D+00  0.00000000D+00  0.25090256D-06 -0.00000000D+00  0.00000000D+00
  0.16249015D-04  0.00000000D+00 -0.00000000D+00  0.18337417D-02 -0.00000000D+00
  0.00000000D+00 -0.17214591D-08 -0.82413296D-08 -0.82413296D-08  0.00000000D+00
 -0.00000000D+00  0.00000000D+00 -0.80502138D-07 -0.20675161D-07 -0.20675161D-07
  0.00000000D+00 -0.00000000D+00 -0.00000000D+00
MO    2     MO 0.0        OCC NO =    0.0000000  ORB. ENERGY =   -0.042646
  0.14292720D-03  0.42526960D-03  0.79863302D-02  0.27404230D+00 -0.28195254D-01
 -0.25942967D-01  0.17789045D-01 -0.79862140D-02  0.42633307D-02 -0.15482717D-02
  0.26428259D-07  0.00000000D+00 -0.00000000D+00  0.12654449D-05  0.00000000D+00
 -0.00000000D+00  0.25708143D-03  0.00000000D+00 -0.00000000D+00  0.24962390D-02
 -0.00000000D+00  0.00000000D+00 -0.25526620D-07 -0.10481495D-07 -0.10481495D-07
  0.00000000D+00 -0.00000000D+00 -0.00000000D+00 -0.17729464D-06 -0.35037265D-06
 -0.35037265D-06  0.00000000D+00 -0.00000000D+00  0.00000000D+00  0.14259844D-03
  0.42422602D-03 -0.10907007D-01 -0.27170674D+00  0.45710825D-01  0.10646565D-01
 -0.93980321D-02 -0.34595949D-02 -0.32536809D-02 -0.33624764D-03 -0.27458945D-06
 -0.00000000D+00  0.00000000D+00 -0.16968036D-05 -0.00000000D+00  0.00000000D+00
 -0.17893864D-03 -0.00000000D+00  0.00000000D+00  0.41942038D-02  0.00000000D+00
 -0.00000000D+00  0.12129582D-07  0.31816444D-08  0.31816444D-08  0.00000000D+00
 -0.00000000D+00  0.00000000D+00  0.22947626D-07  0.68729240D-07  0.68729240D-07
  0.00000000D+00 -0.00000000D+00 -0.00000000D+00
MO    3     MO 0.0        OCC NO =    0.0000000  ORB. ENERGY =   -0.004673
 -0.23444606D-03 -0.45851557D-03 -0.25888334D-01 -0.78915685D+00  0.46265715D-02
 -0.32259215D-01  0.14557312D-01 -0.97540332D-02  0.35674757D-02 -0.17299267D-02
 -0.21667131D-05 -0.00000000D+00  0.00000000D+00 -0.41232452D-05 -0.00000000D+00
  0.00000000D+00 -0.10888174D-03 -0.00000000D+00  0.00000000D+00 -0.86603466D-02
  0.00000000D+00 -0.00000000D+00 -0.17445455D-06 -0.18053828D-06 -0.18053828D-06
 -0.00000000D+00 -0.00000000D+00  0.00000000D+00 -0.19011002D-05 -0.18403072D-05
 -0.18403072D-05 -0.00000000D+00  0.00000000D+00  0.00000000D+00 -0.23928753D-03
 -0.46824784D-03  0.28778948D-01  0.77929614D+00  0.11094310D-03  0.46580277D-01
 -0.25260624D-01  0.27904796D-02 -0.79153704D-02  0.12552882D-02 -0.16774196D-05
  0.00000000D+00 -0.00000000D+00 -0.52401877D-06  0.00000000D+00 -0.00000000D+00
 -0.38967464D-04  0.00000000D+00 -0.00000000D+00 -0.11462000D-01 -0.00000000D+00
  0.00000000D+00  0.19253826D-06  0.19556205D-06  0.19556205D-06 -0.00000000D+00
  0.00000000D+00 -0.00000000D+00  0.21997088D-05  0.22054202D-05  0.22054202D-05
 -0.00000000D+00 -0.00000000D+00 -0.00000000D+00
MO    4     MO 0.0        OCC NO =    0.0000000  ORB. ENERGY =   -0.002621
  0.00000000D+00  0.00000000D+00  0.00000000D+00  0.84417583D-10 -0.00000000D+00
  0.00000000D+00 -0.00000000D+00  0.00000000D+00 -0.00000000D+00  0.00000000D+00
  0.00000000D+00  0.67679937D-06  0.27827927D-06  0.00000000D+00 -0.91176213D-05
 -0.37488892D-05  0.00000000D+00 -0.88593777D-04 -0.36427072D-04  0.00000000D+00
  0.10421595D-02  0.42850435D-03  0.00000000D+00  0.00000000D+00  0.00000000D+00
  0.18978778D-06  0.78034974D-07  0.00000000D+00  0.00000000D+00  0.00000000D+00
  0.00000000D+00 -0.51873235D-06 -0.21328699D-06 -0.00000000D+00  0.00000000D+00
  0.00000000D+00 -0.00000000D+00 -0.84417583D-10  0.00000000D+00 -0.00000000D+00
  0.00000000D+00 -0.00000000D+00  0.00000000D+00 -0.00000000D+00  0.00000000D+00
  0.68461875D-06  0.28149443D-06  0.00000000D+00 -0.92462950D-05 -0.38017960D-05
  0.00000000D+00  0.17737079D-03  0.72929485D-04  0.00000000D+00 -0.19467012D-02
 -0.80042441D-03 -0.00000000D+00 -0.00000000D+00 -0.00000000D+00 -0.18187085D-06
 -0.74779772D-07 -0.00000000D+00 -0.00000000D+00 -0.00000000D+00 -0.00000000D+00
  0.36857168D-06  0.15154549D-06  0.00000000D+00
MO    5     MO 0.0        OCC NO =    0.0000000  ORB. ENERGY =   -0.002621
  0.00000000D+00  0.00000000D+00  0.37033263D-10  0.67534067D-09 -0.00000000D+00
  0.00000000D+00 -0.00000000D+00  0.00000000D+00 -0.00000000D+00  0.00000000D+00
  0.00000000D+00  0.27827927D-06 -0.67679937D-06  0.00000000D+00 -0.37488892D-05
  0.91176213D-05  0.00000000D+00 -0.36427072D-04  0.88593777D-04  0.87729326D-11
  0.42850435D-03 -0.10421595D-02  0.00000000D+00  0.00000000D+00  0.00000000D+00
  0.78034974D-07 -0.18978778D-06  0.00000000D+00  0.00000000D+00  0.00000000D+00
  0.00000000D+00 -0.21328699D-06  0.51873235D-06 -0.00000000D+00  0.00000000D+00
  0.00000000D+00 -0.37033263D-10 -0.67534067D-09  0.00000000D+00 -0.00000000D+00
  0.00000000D+00 -0.00000000D+00  0.00000000D+00 -0.00000000D+00  0.00000000D+00
  0.28149443D-06 -0.68461875D-06  0.00000000D+00 -0.38017960D-05  0.92462950D-05
  0.00000000D+00  0.72929485D-04 -0.17737079D-03  0.87729326D-11 -0.80042441D-03
  0.19467012D-02 -0.00000000D+00 -0.00000000D+00 -0.00000000D+00 -0.74779772D-07
  0.18187085D-06 -0.00000000D+00 -0.00000000D+00 -0.00000000D+00 -0.00000000D+00
  0.15154549D-06 -0.36857168D-06  0.00000000D+00
MO    6     MO 0.0        OCC NO =    0.0000000  ORB. ENERGY =   -0.000335
  0.69021434D-04  0.58309605D-04  0.61091035D-02  0.20037069D+00 -0.18678857D-02
  0.86714228D-02 -0.37099819D-02  0.22473695D-02 -0.84223645D-03  0.39272910D-03
 -0.14589601D-05  0.00000000D+00 -0.00000000D+00 -0.13612171D-04  0.00000000D+00
 -0.00000000D+00  0.15491456D-03  0.00000000D+00 -0.00000000D+00  0.20888750D-02
 -0.00000000D+00 -0.00000000D+00  0.60861408D-07  0.60374029D-07  0.60374029D-07
  0.00000000D+00 -0.00000000D+00 -0.00000000D+00  0.10162556D-05 -0.38635091D-06
 -0.38635091D-06  0.00000000D+00 -0.00000000D+00 -0.00000000D+00  0.65632085D-04
  0.28112814D-04 -0.77120721D-02 -0.19689737D+00  0.96678438D-03 -0.12335299D-01
  0.63356313D-02 -0.73726561D-03  0.19431837D-02 -0.31222911D-03 -0.17085755D-05
 -0.00000000D+00  0.00000000D+00 -0.15669510D-04 -0.00000000D+00  0.00000000D+00
 -0.12931607D-03 -0.00000000D+00  0.00000000D+00  0.30648589D-02 -0.00000000D+00
  0.00000000D+00 -0.98974584D-07 -0.70504913D-07 -0.70504913D-07  0.00000000D+00
  0.00000000D+00  0.00000000D+00 -0.15282088D-05  0.21122920D-06  0.21122920D-06
  0.00000000D+00  0.00000000D+00  0.00000000D+00
MO    7     MO 0.0        OCC NO =    0.0000000  ORB. ENERGY =    0.000043
  0.00000000D+00 -0.00000000D+00  0.00000000D+00  0.00000000D+00 -0.00000000D+00
  0.00000000D+00 -0.00000000D+00 -0.00000000D+00 -0.00000000D+00 -0.00000000D+00
  0.00000000D+00 -0.26398266D-05 -0.53572307D-05  0.00000000D+00 -0.98776958D-06
 -0.20045676D-05 -0.00000000D+00  0.27347426D-04  0.55498521D-04  0.00000000D+00
 -0.28244176D-04 -0.57318368D-04  0.00000000D+00  0.00000000D+00  0.00000000D+00
  0.43660278D-06  0.88603618D-06  0.00000000D+00  0.00000000D+00  0.00000000D+00
  0.00000000D+00  0.71111499D-06  0.14431278D-05 -0.00000000D+00  0.00000000D+00
 -0.00000000D+00 -0.00000000D+00 -0.00000000D+00  0.00000000D+00 -0.00000000D+00
  0.00000000D+00 -0.00000000D+00  0.00000000D+00 -0.00000000D+00  0.00000000D+00
 -0.27171049D-05 -0.55140585D-05  0.00000000D+00 -0.10922465D-05 -0.22165919D-05
  0.00000000D+00 -0.36018749D-04 -0.73095997D-04  0.00000000D+00  0.75375537D-04
  0.15296616D-03 -0.00000000D+00 -0.00000000D+00 -0.00000000D+00 -0.50483286D-06
 -0.10245014D-05 -0.00000000D+00 -0.00000000D+00 -0.00000000D+00 -0.00000000D+00
 -0.79684847D-06 -0.16171142D-05  0.00000000D+00
MO    8     MO 0.0        OCC NO =    0.0000000  ORB. ENERGY =    0.000043
  0.00000000D+00 -0.00000000D+00  0.00000000D+00  0.00000000D+00 -0.00000000D+00
  0.00000000D+00 -0.00000000D+00 -0.00000000D+00 -0.00000000D+00 -0.00000000D+00
  0.00000000D+00  0.53572307D-05 -0.26398266D-05  0.00000000D+00  0.20045676D-05
 -0.98776958D-06  0.00000000D+00 -0.55498521D-04  0.27347426D-04  0.00000000D+00
  0.57318368D-04 -0.28244176D-04  0.00000000D+00  0.00000000D+00  0.00000000D+00
 -0.88603618D-06  0.43660278D-06  0.00000000D+00  0.00000000D+00  0.00000000D+00
  0.00000000D+00 -0.14431278D-05  0.71111499D-06 -0.00000000D+00  0.00000000D+00
 -0.00000000D+00 -0.00000000D+00 -0.00000000D+00  0.00000000D+00 -0.00000000D+00
  0.00000000D+00 -0.00000000D+00  0.00000000D+00 -0.00000000D+00  0.00000000D+00
  0.55140585D-05 -0.27171049D-05  0.00000000D+00  0.22165919D-05 -0.10922465D-05
  0.00000000D+00  0.73095997D-04 -0.36018749D-04  0.00000000D+00 -0.15296616D-03
  0.75375537D-04 -0.00000000D+00 -0.00000000D+00 -0.00000000D+00  0.10245014D-05
 -0.50483286D-06 -0.00000000D+00 -0.00000000D+00 -0.00000000D+00 -0.00000000D+00
  0.16171142D-05 -0.79684847D-06  0.00000000D+00
MO    9     MO 0.0        OCC NO =    0.0000000  ORB. ENERGY =    0.000066
 -0.88685275D-03  0.57853130D-03  0.38297256D-02  0.11676723D+00 -0.11906624D-02
  0.51697905D-02 -0.21852033D-02  0.12978145D-02 -0.48725590D-03  0.22567711D-03
 -0.23040615D-05  0.00000000D+00 -0.00000000D+00  0.40673725D-05  0.00000000D+00
 -0.00000000D+00  0.83034719D-04  0.00000000D+00  0.00000000D+00  0.12153395D-02
 -0.00000000D+00 -0.00000000D+00 -0.16069552D-05 -0.12620319D-05 -0.12620319D-05
  0.00000000D+00  0.00000000D+00  0.00000000D+00 -0.13504259D-05 -0.21280701D-05
 -0.21280701D-05  0.00000000D+00  0.00000000D+00 -0.00000000D+00 -0.89393552D-03
  0.58071061D-03 -0.37529827D-02 -0.11502891D+00  0.83705968D-03 -0.74329479D-02
  0.38062861D-02 -0.48137371D-03  0.11686151D-02 -0.19420904D-03 -0.86610392D-07
 -0.00000000D+00  0.00000000D+00  0.11301460D-05 -0.00000000D+00  0.00000000D+00
 -0.52426597D-04 -0.00000000D+00 -0.00000000D+00  0.17846672D-02  0.00000000D+00
  0.00000000D+00  0.17839463D-05  0.13694715D-05  0.13694715D-05  0.00000000D+00
 -0.00000000D+00 -0.00000000D+00  0.14125471D-05  0.25301319D-05  0.25301319D-05
  0.00000000D+00 -0.00000000D+00  0.00000000D+00
MO   10     MO 0.0        OCC NO =    0.0000000  ORB. ENERGY =    0.000170
 -0.75561443D-03  0.56389061D-03 -0.10244470D-02 -0.41655021D-01  0.77465871D-03
 -0.12492524D-02  0.53300468D-03 -0.10901087D-03  0.10045737D-03 -0.24065909D-04
 -0.31469831D-05 -0.00000000D+00  0.00000000D+00 -0.35838359D-05 -0.00000000D+00
  0.00000000D+00  0.63976102D-05  0.00000000D+00 -0.00000000D+00 -0.46920440D-03
  0.00000000D+00 -0.00000000D+00  0.10024303D-05 -0.19203700D-06 -0.19203700D-06
 -0.00000000D+00  0.00000000D+00 -0.00000000D+00  0.11909710D-05  0.43145246D-06
  0.43145246D-06  0.00000000D+00 -0.00000000D+00 -0.00000000D+00 -0.75860082D-03
  0.55662504D-03  0.17133198D-02  0.41019120D-01 -0.54103676D-03  0.91742899D-03
 -0.33215415D-03  0.71313948D-04 -0.88065808D-04  0.17291450D-04 -0.17510397D-05
  0.00000000D+00 -0.00000000D+00 -0.50288106D-05  0.00000000D+00 -0.00000000D+00
 -0.18325483D-04 -0.00000000D+00  0.00000000D+00 -0.56964038D-03 -0.00000000D+00
  0.00000000D+00 -0.99537510D-06  0.36068173D-06  0.36068173D-06  0.00000000D+00
 -0.00000000D+00  0.00000000D+00 -0.73060910D-06 -0.69309695D-07 -0.69309695D-07
 -0.00000000D+00  0.00000000D+00  0.00000000D+00
MO   11     MO 0.0        OCC NO =    0.0000000  ORB. ENERGY =    0.000265
 -0.00000000D+00  0.00000000D+00  0.00000000D+00  0.84417583D-10 -0.00000000D+00
  0.00000000D+00 -0.00000000D+00  0.00000000D+00 -0.00000000D+00  0.00000000D+00
  0.00000000D+00  0.00000000D+00 -0.00000000D+00 -0.00000000D+00 -0.00000000D+00
 -0.00000000D+00  0.00000000D+00 -0.00000000D+00 -0.00000000D+00  0.00000000D+00
 -0.00000000D+00 -0.00000000D+00  0.16459228D-14  0.15655160D-05 -0.15655160D-05
  0.00000000D+00  0.00000000D+00  0.11118205D-12  0.00000000D+00  0.14772169D-06
 -0.14772168D-06 -0.00000000D+00 -0.00000000D+00  0.19495406D-13 -0.00000000D+00
  0.00000000D+00 -0.00000000D+00 -0.84417583D-10  0.00000000D+00 -0.00000000D+00
  0.00000000D+00 -0.00000000D+00  0.00000000D+00 -0.00000000D+00  0.00000000D+00
 -0.00000000D+00  0.00000000D+00 -0.00000000D+00  0.00000000D+00  0.00000000D+00
 -0.00000000D+00  0.00000000D+00  0.00000000D+00  0.00000000D+00  0.00000000D+00
  0.00000000D+00 -0.16459228D-14 -0.16966336D-05  0.16966336D-05 -0.00000000D+00
 -0.00000000D+00 -0.11973452D-12 -0.00000000D+00 -0.30254418D-07  0.30254406D-07
  0.00000000D+00  0.00000000D+00 -0.00000000D+00
MO   12     MO 0.0        OCC NO =    0.0000000  ORB. ENERGY =    0.000265
  0.00000000D+00  0.00000000D+00 -0.00000000D+00 -0.00000000D+00  0.00000000D+00
 -0.00000000D+00  0.00000000D+00  0.00000000D+00  0.00000000D+00  0.00000000D+00
 -0.00000000D+00 -0.00000000D+00 -0.00000000D+00  0.00000000D+00 -0.00000000D+00
  0.00000000D+00 -0.00000000D+00 -0.00000000D+00  0.00000000D+00 -0.00000000D+00
 -0.00000000D+00  0.00000000D+00 -0.00000000D+00  0.55961375D-13 -0.55961375D-13
  0.00000000D+00 -0.00000000D+00 -0.31310745D-05  0.00000000D+00  0.00000000D+00
 -0.00000000D+00 -0.00000000D+00  0.00000000D+00 -0.29516235D-06 -0.00000000D+00
 -0.00000000D+00  0.00000000D+00  0.00000000D+00 -0.00000000D+00  0.00000000D+00
 -0.00000000D+00  0.00000000D+00 -0.00000000D+00  0.00000000D+00  0.00000000D+00
 -0.00000000D+00  0.00000000D+00 -0.00000000D+00  0.00000000D+00 -0.00000000D+00
 -0.00000000D+00  0.00000000D+00 -0.00000000D+00 -0.00000000D+00  0.00000000D+00
 -0.00000000D+00  0.00000000D+00 -0.59253220D-13  0.59253220D-13 -0.00000000D+00
  0.00000000D+00  0.33933152D-05 -0.00000000D+00 -0.00000000D+00  0.00000000D+00
  0.00000000D+00 -0.00000000D+00  0.60153952D-07
MO   13     MO 0.0        OCC NO =    0.0000000  ORB. ENERGY =    0.000306
 -0.69441324D-03  0.46058494D-03  0.30355988D-02  0.71142750D-01 -0.26012194D-03
  0.14983204D-02 -0.60931590D-03  0.31526700D-03 -0.12096969D-03  0.52881045D-04
  0.10590653D-04  0.00000000D+00 -0.00000000D+00 -0.27975831D-04  0.00000000D+00
 -0.00000000D+00 -0.55365757D-05 -0.00000000D+00  0.00000000D+00  0.82792546D-03
 -0.00000000D+00  0.00000000D+00  0.15021902D-05  0.33519435D-05  0.33519435D-05
  0.00000000D+00 -0.00000000D+00 -0.00000000D+00  0.42919779D-05  0.39953520D-05
  0.39953520D-05 -0.00000000D+00  0.00000000D+00  0.00000000D+00 -0.66464484D-03
  0.40587929D-03 -0.26292924D-02 -0.70668152D-01  0.23584048D-03 -0.21305365D-02
  0.10715508D-02 -0.14073610D-03  0.32644099D-03 -0.54562816D-04  0.12418634D-04
 -0.00000000D+00  0.00000000D+00 -0.29745200D-04 -0.00000000D+00  0.00000000D+00
 -0.13941657D-04  0.00000000D+00 -0.00000000D+00  0.10035270D-02  0.00000000D+00
 -0.00000000D+00 -0.13270997D-05 -0.32946802D-05 -0.32946802D-05 -0.00000000D+00
  0.00000000D+00  0.00000000D+00 -0.41270580D-05 -0.36624211D-05 -0.36624211D-05
  0.00000000D+00 -0.00000000D+00 -0.00000000D+00
MO   14     MO 0.0        OCC NO =    0.0000000  ORB. ENERGY =    0.000370
 -0.00000000D+00  0.00000000D+00  0.00000000D+00  0.00000000D+00 -0.00000000D+00
  0.00000000D+00 -0.00000000D+00 -0.00000000D+00  0.00000000D+00 -0.00000000D+00
 -0.00000000D+00 -0.20543165D-06 -0.25954495D-06  0.00000000D+00  0.77991379D-06
  0.98535299D-06 -0.00000000D+00 -0.21610800D-04 -0.27303359D-04  0.00000000D+00
  0.78359834D-06  0.99000790D-06  0.00000000D+00 -0.00000000D+00 -0.00000000D+00
 -0.19593867D-05 -0.24755142D-05  0.00000000D+00  0.00000000D+00  0.00000000D+00
  0.00000000D+00  0.14696610D-05  0.18567885D-05 -0.00000000D+00 -0.00000000D+00
  0.00000000D+00 -0.00000000D+00 -0.00000000D+00  0.00000000D+00 -0.00000000D+00
  0.00000000D+00 -0.00000000D+00  0.00000000D+00 -0.00000000D+00 -0.00000000D+00
 -0.68458781D-07 -0.86491655D-07  0.00000000D+00  0.17420244D-06  0.22008958D-06
  0.00000000D+00  0.22693554D-05  0.28671322D-05  0.00000000D+00  0.75950366D-04
  0.95956661D-04 -0.00000000D+00  0.00000000D+00  0.00000000D+00  0.20801047D-05
  0.26280309D-05 -0.00000000D+00 -0.00000000D+00 -0.00000000D+00 -0.00000000D+00
 -0.20040924D-05 -0.25319959D-05  0.00000000D+00
MO   15     MO 0.0        OCC NO =    0.0000000  ORB. ENERGY =    0.000370
 -0.00000000D+00  0.00000000D+00  0.00000000D+00  0.00000000D+00 -0.00000000D+00
  0.00000000D+00 -0.00000000D+00 -0.00000000D+00 -0.00000000D+00 -0.00000000D+00
 -0.00000000D+00  0.25954495D-06 -0.20543165D-06  0.00000000D+00 -0.98535299D-06
  0.77991379D-06  0.00000000D+00  0.27303359D-04 -0.21610800D-04  0.00000000D+00
 -0.99000790D-06  0.78359834D-06  0.00000000D+00 -0.00000000D+00 -0.00000000D+00
  0.24755142D-05 -0.19593867D-05  0.00000000D+00  0.00000000D+00  0.00000000D+00
  0.00000000D+00 -0.18567885D-05  0.14696610D-05 -0.00000000D+00 -0.00000000D+00
  0.00000000D+00 -0.00000000D+00 -0.00000000D+00  0.00000000D+00 -0.00000000D+00
  0.00000000D+00 -0.00000000D+00  0.00000000D+00 -0.00000000D+00 -0.00000000D+00
  0.86491655D-07 -0.68458781D-07  0.00000000D+00 -0.22008958D-06  0.17420244D-06
  0.00000000D+00 -0.28671322D-05  0.22693554D-05  0.00000000D+00 -0.95956661D-04
  0.75950366D-04 -0.00000000D+00  0.00000000D+00  0.00000000D+00 -0.26280309D-05
  0.20801047D-05 -0.00000000D+00 -0.00000000D+00 -0.00000000D+00 -0.00000000D+00
  0.25319959D-05 -0.20040924D-05  0.00000000D+00
MO   16     MO 0.0        OCC NO =    0.0000000  ORB. ENERGY =    0.000452
  0.00000000D+00 -0.00000000D+00 -0.00000000D+00 -0.00000000D+00  0.00000000D+00
 -0.00000000D+00  0.00000000D+00  0.00000000D+00  0.00000000D+00  0.00000000D+00
  0.00000000D+00 -0.45348024D-05 -0.76313614D-05 -0.00000000D+00  0.11532983D-04
  0.19408202D-04  0.00000000D+00 -0.45581781D-04 -0.76706991D-04 -0.00000000D+00
  0.41386599D-04  0.69647163D-04 -0.00000000D+00  0.00000000D+00  0.00000000D+00
  0.12660429D-05  0.21305517D-05 -0.00000000D+00 -0.00000000D+00 -0.00000000D+00
 -0.00000000D+00 -0.32579272D-05 -0.54825807D-05  0.00000000D+00  0.00000000D+00
 -0.00000000D+00  0.00000000D+00  0.00000000D+00 -0.00000000D+00  0.00000000D+00
 -0.00000000D+00  0.00000000D+00 -0.00000000D+00  0.00000000D+00 -0.00000000D+00
 -0.44627045D-05 -0.75100320D-05 -0.00000000D+00  0.11777399D-04  0.19819515D-04
 -0.00000000D+00  0.53015263D-04  0.89216376D-04 -0.00000000D+00 -0.10201305D-03
 -0.17167196D-03  0.00000000D+00 -0.00000000D+00 -0.00000000D+00 -0.12022892D-05
 -0.20232642D-05  0.00000000D+00  0.00000000D+00  0.00000000D+00  0.00000000D+00
  0.34632547D-05  0.58281146D-05 -0.00000000D+00
MO   17     MO 0.0        OCC NO =    0.0000000  ORB. ENERGY =    0.000452
  0.00000000D+00 -0.00000000D+00 -0.00000000D+00 -0.84417583D-10  0.00000000D+00
 -0.00000000D+00  0.00000000D+00  0.00000000D+00  0.00000000D+00  0.00000000D+00
 -0.00000000D+00  0.76313614D-05 -0.45348024D-05  0.00000000D+00 -0.19408202D-04
  0.11532983D-04 -0.00000000D+00  0.76706991D-04 -0.45581781D-04 -0.00000000D+00
 -0.69647163D-04  0.41386599D-04 -0.00000000D+00  0.00000000D+00  0.00000000D+00
 -0.21305517D-05  0.12660429D-05 -0.00000000D+00 -0.00000000D+00 -0.00000000D+00
 -0.00000000D+00  0.54825807D-05 -0.32579272D-05  0.00000000D+00  0.00000000D+00
 -0.00000000D+00  0.00000000D+00  0.84417583D-10 -0.00000000D+00  0.00000000D+00
 -0.00000000D+00  0.00000000D+00 -0.00000000D+00  0.00000000D+00 -0.00000000D+00
  0.75100320D-05 -0.44627045D-05  0.00000000D+00 -0.19819515D-04  0.11777399D-04
 -0.00000000D+00 -0.89216376D-04  0.53015263D-04 -0.00000000D+00  0.17167196D-03
 -0.10201305D-03  0.00000000D+00 -0.00000000D+00 -0.00000000D+00  0.20232642D-05
 -0.12022892D-05  0.00000000D+00  0.00000000D+00  0.00000000D+00  0.00000000D+00
 -0.58281146D-05  0.34632547D-05 -0.00000000D+00
MO   18     MO 0.0        OCC NO =    0.0000000  ORB. ENERGY =    0.000494
  0.71270547D-11 -0.00000000D+00  0.00000000D+00  0.42208792D-09 -0.00000000D+00
  0.00000000D+00 -0.00000000D+00  0.00000000D+00 -0.00000000D+00  0.00000000D+00
  0.00000000D+00  0.00000000D+00 -0.00000000D+00 -0.00000000D+00 -0.00000000D+00
 -0.00000000D+00  0.00000000D+00 -0.00000000D+00 -0.00000000D+00  0.00000000D+00
 -0.00000000D+00  0.00000000D+00  0.98755367D-14  0.29913787D-05 -0.29913787D-05
 -0.00000000D+00  0.00000000D+00  0.19385589D-12  0.11255678D-13 -0.23593780D-05
  0.23593781D-05  0.00000000D+00 -0.00000000D+00 -0.15596325D-12  0.71270547D-11
 -0.00000000D+00 -0.37033263D-10 -0.42208792D-09  0.00000000D+00 -0.00000000D+00
  0.00000000D+00 -0.00000000D+00  0.00000000D+00 -0.00000000D+00  0.00000000D+00
 -0.00000000D+00  0.00000000D+00 -0.00000000D+00  0.00000000D+00  0.00000000D+00
 -0.00000000D+00  0.00000000D+00  0.00000000D+00  0.87729326D-11  0.00000000D+00
 -0.00000000D+00 -0.98755367D-14 -0.29117375D-05  0.29117375D-05  0.00000000D+00
 -0.00000000D+00 -0.19100507D-12 -0.22511356D-13  0.22841363D-05 -0.22841364D-05
 -0.00000000D+00  0.00000000D+00  0.15596325D-12
MO   19     MO 0.0        OCC NO =    0.0000000  ORB. ENERGY =    0.000494
 -0.00000000D+00  0.00000000D+00 -0.00000000D+00 -0.00000000D+00  0.00000000D+00
 -0.00000000D+00  0.00000000D+00 -0.00000000D+00  0.00000000D+00 -0.00000000D+00
 -0.00000000D+00 -0.00000000D+00  0.00000000D+00  0.00000000D+00  0.00000000D+00
 -0.00000000D+00 -0.00000000D+00 -0.00000000D+00 -0.00000000D+00 -0.00000000D+00
 -0.00000000D+00  0.00000000D+00 -0.00000000D+00 -0.97109444D-13  0.97109444D-13
 -0.00000000D+00  0.00000000D+00  0.59827237D-05 -0.00000000D+00  0.78789744D-13
 -0.78789744D-13  0.00000000D+00 -0.00000000D+00 -0.47185036D-05 -0.00000000D+00
  0.00000000D+00  0.00000000D+00  0.00000000D+00 -0.00000000D+00  0.00000000D+00
 -0.00000000D+00  0.00000000D+00 -0.00000000D+00  0.00000000D+00 -0.00000000D+00
  0.00000000D+00 -0.00000000D+00  0.00000000D+00 -0.00000000D+00  0.00000000D+00
  0.00000000D+00 -0.00000000D+00  0.00000000D+00 -0.00000000D+00  0.00000000D+00
 -0.00000000D+00  0.00000000D+00  0.95463521D-13 -0.95463521D-13  0.00000000D+00
 -0.00000000D+00 -0.58234374D-05  0.00000000D+00 -0.78789744D-13  0.78789744D-13
 -0.00000000D+00  0.00000000D+00  0.45679803D-05
MO   20     MO 0.0        OCC NO =    0.0000000  ORB. ENERGY =    0.000499
 -0.95610547D-03  0.61523023D-03 -0.42403455D-02 -0.13402953D+00  0.12156324D-02
 -0.45642178D-02  0.19206182D-02 -0.91891697D-03  0.39897708D-03 -0.16240935D-03
 -0.10668039D-04 -0.00000000D+00  0.00000000D+00  0.39599429D-04 -0.00000000D+00
  0.00000000D+00 -0.72070437D-04 -0.00000000D+00  0.00000000D+00 -0.14535704D-02
  0.00000000D+00 -0.00000000D+00 -0.35583881D-05 -0.35354830D-06 -0.35354832D-06
  0.00000000D+00 -0.00000000D+00 -0.00000000D+00 -0.41458384D-05 -0.63585707D-05
 -0.63585706D-05 -0.00000000D+00  0.00000000D+00  0.00000000D+00 -0.98747801D-03
  0.69260232D-03  0.60151572D-02  0.13179655D+00 -0.66033730D-03  0.56611756D-02
 -0.27405307D-02  0.32357268D-03 -0.82049796D-03  0.12969772D-03 -0.88736839D-05
  0.00000000D+00 -0.00000000D+00  0.38647675D-04  0.00000000D+00 -0.00000000D+00
  0.92981197D-04  0.00000000D+00 -0.00000000D+00 -0.19897353D-02 -0.00000000D+00
  0.00000000D+00  0.35685439D-05  0.46241933D-06  0.46241935D-06 -0.00000000D+00
  0.00000000D+00  0.00000000D+00  0.48848032D-05  0.69667713D-05  0.69667713D-05
  0.00000000D+00 -0.00000000D+00 -0.00000000D+00
MO   21     MO 0.0        OCC NO =    0.0000000  ORB. ENERGY =    0.000528
  0.30206315D-02 -0.19354900D-02  0.11815827D-02  0.86729499D-01 -0.87249729D-03
  0.49420623D-02 -0.21785810D-02  0.15390620D-02 -0.53958102D-03  0.27056382D-03
  0.17902678D-04  0.00000000D+00 -0.00000000D+00 -0.44999911D-04  0.00000000D+00
 -0.00000000D+00  0.15839956D-03  0.00000000D+00 -0.00000000D+00  0.81402222D-03
 -0.00000000D+00  0.00000000D+00  0.49162729D-06  0.23268649D-05  0.23268649D-05
  0.00000000D+00 -0.00000000D+00  0.00000000D+00  0.40866462D-05  0.12610025D-06
  0.12610025D-06 -0.00000000D+00  0.00000000D+00 -0.00000000D+00  0.30555775D-02
 -0.20202660D-02 -0.51335203D-02 -0.83438128D-01 -0.24277760D-03 -0.72865013D-02
  0.37916406D-02 -0.29760035D-03  0.11586187D-02 -0.16385426D-03  0.11442740D-04
 -0.00000000D+00  0.00000000D+00 -0.41086404D-04 -0.00000000D+00  0.00000000D+00
 -0.17217217D-03  0.00000000D+00 -0.00000000D+00  0.14541714D-02 -0.00000000D+00
  0.00000000D+00 -0.77240616D-06 -0.25818342D-05 -0.25818342D-05 -0.00000000D+00
  0.00000000D+00 -0.00000000D+00 -0.60321532D-05 -0.16743410D-05 -0.16743410D-05
  0.00000000D+00 -0.00000000D+00  0.00000000D+00
MO   22     MO 0.0        OCC NO =    0.0000000  ORB. ENERGY =    0.000598
  0.00000000D+00 -0.00000000D+00  0.00000000D+00  0.00000000D+00 -0.00000000D+00
  0.00000000D+00 -0.00000000D+00  0.00000000D+00 -0.00000000D+00  0.00000000D+00
  0.00000000D+00  0.14806081D-05  0.21104522D-05 -0.00000000D+00 -0.18468579D-04
 -0.26325029D-04  0.00000000D+00 -0.19912415D-06 -0.28383107D-06  0.00000000D+00
 -0.41932609D-04 -0.59770543D-04  0.00000000D+00  0.00000000D+00  0.00000000D+00
  0.15179146D-05  0.21636286D-05  0.00000000D+00  0.00000000D+00  0.00000000D+00
  0.00000000D+00  0.22415948D-05  0.31951589D-05 -0.00000000D+00  0.00000000D+00
 -0.00000000D+00 -0.00000000D+00 -0.00000000D+00  0.00000000D+00 -0.00000000D+00
  0.00000000D+00 -0.00000000D+00  0.00000000D+00 -0.00000000D+00  0.00000000D+00
  0.16130852D-05  0.22992845D-05 -0.00000000D+00 -0.19328392D-04 -0.27550601D-04
 -0.00000000D+00  0.37055601D-05  0.52818906D-05  0.00000000D+00  0.12878537D-03
  0.18357008D-03 -0.00000000D+00 -0.00000000D+00 -0.00000000D+00 -0.14012065D-05
 -0.19972733D-05 -0.00000000D+00 -0.00000000D+00 -0.00000000D+00 -0.00000000D+00
 -0.29973196D-05 -0.42723657D-05  0.00000000D+00
MO   23     MO 0.0        OCC NO =    0.0000000  ORB. ENERGY =    0.000598
 -0.00000000D+00  0.00000000D+00 -0.00000000D+00 -0.84417583D-10  0.00000000D+00
 -0.00000000D+00  0.00000000D+00  0.00000000D+00  0.00000000D+00 -0.00000000D+00
 -0.00000000D+00  0.21104522D-05 -0.14806081D-05  0.00000000D+00 -0.26325029D-04
  0.18468579D-04 -0.00000000D+00 -0.28383107D-06  0.19912415D-06 -0.00000000D+00
 -0.59770543D-04  0.41932609D-04 -0.00000000D+00 -0.00000000D+00 -0.00000000D+00
  0.21636286D-05 -0.15179146D-05 -0.00000000D+00 -0.00000000D+00 -0.00000000D+00
 -0.00000000D+00  0.31951589D-05 -0.22415948D-05  0.00000000D+00 -0.00000000D+00
  0.00000000D+00  0.00000000D+00  0.84417583D-10 -0.00000000D+00  0.00000000D+00
 -0.00000000D+00  0.00000000D+00 -0.00000000D+00  0.00000000D+00 -0.00000000D+00
  0.22992845D-05 -0.16130852D-05  0.00000000D+00 -0.27550601D-04  0.19328392D-04
  0.00000000D+00  0.52818906D-05 -0.37055601D-05 -0.00000000D+00  0.18357008D-03
 -0.12878537D-03  0.00000000D+00  0.00000000D+00  0.00000000D+00 -0.19972733D-05
  0.14012065D-05  0.00000000D+00  0.00000000D+00  0.00000000D+00  0.00000000D+00
 -0.42723657D-05  0.29973196D-05 -0.00000000D+00
MO   24     MO 0.0        OCC NO =    0.0000000  ORB. ENERGY =    0.000655
  0.80772688D-03 -0.76215422D-03 -0.53207973D-02 -0.15163748D+00  0.13319886D-02
 -0.31754801D-02  0.12112645D-02 -0.14291053D-05  0.14746217D-03 -0.11725024D-05
 -0.16396766D-04 -0.00000000D+00  0.00000000D+00  0.29103892D-04 -0.00000000D+00
  0.00000000D+00 -0.12516235D-03  0.00000000D+00 -0.00000000D+00 -0.17143949D-02
  0.00000000D+00 -0.00000000D+00 -0.17573648D-05 -0.24936328D-05 -0.24936328D-05
 -0.00000000D+00  0.00000000D+00  0.00000000D+00 -0.49429323D-05 -0.65789712D-05
 -0.65789712D-05 -0.00000000D+00  0.00000000D+00 -0.00000000D+00  0.76445149D-03
 -0.70630583D-03  0.61441080D-02  0.15090287D+00 -0.17191069D-02  0.26845547D-02
 -0.99129497D-03  0.30321192D-03 -0.27008926D-03  0.67199786D-04 -0.17683413D-04
  0.00000000D+00 -0.00000000D+00  0.30230176D-04  0.00000000D+00 -0.00000000D+00