[Molden Format]
[Title]
 Molden2AIM, Version 3.1.0 (02/25/2015)           Time: Mon Dec  2 17:31:01 2024

[Atoms] AU
E+       1       4     0.00000000     0.00000000     0.00000000
BE       2       4     4.54000000     0.00000000     0.00000000
[GTO]
    1 0
 S   1 1.0
    0.1000000000D-03      0.1000000000D+01
 S   1 1.0
    0.3000000000D-03      0.1000000000D+01
 S   1 1.0
    0.9000000000D-03      0.1000000000D+01
 S   1 1.0
    0.2700000000D-02      0.1000000000D+01
 S   1 1.0
    0.8100000000D-02      0.1000000000D+01
 S   1 1.0
    0.2430000000D-01      0.1000000000D+01
 S   1 1.0
    0.7290000000D-01      0.1000000000D+01
 S   1 1.0
    0.2187000000D+00      0.1000000000D+01
 S   1 1.0
    0.6561000000D+00      0.1000000000D+01
 S   1 1.0
    0.1968300000D+01      0.1000000000D+01
 P   1 1.0
    0.1000000000D-03      0.1000000000D+01
 P   1 1.0
    0.3000000000D-03      0.1000000000D+01
 P   1 1.0
    0.9000000000D-03      0.1000000000D+01
 P   1 1.0
    0.2700000000D-02      0.1000000000D+01
 D   1 1.0
    0.1000000000D-03      0.1000000000D+01
 D   1 1.0
    0.3000000000D-03      0.1000000000D+01

    2 0
 S   1 1.0
    0.1000000000D+01      0.1000000000D+01


[MO]
 Ene=          0.00007633
 Spin= Alpha
 Occup=        1.00000000
    1        1.9584456800
    2       -0.7047475100
    3       -0.1940912700
    4        0.0410583500
    5       -0.0073331100
    6        0.0055823400
    7       -0.0005944300
    8        0.0002582300
    9        0.0000043400
   10        0.0000062100
   11       -0.0006328500
   12        0.0000000000
   13        0.0000000000
   14        0.0026808500
   15        0.0000000000
   16       -0.0000000000
   17       -0.0020833700
   18        0.0000000000
   19        0.0000000000
   20        0.0033737300
   21        0.0000000000
   22        0.0000000000
   23       -0.7918488300
   24       -0.7877493800
   25       -0.7877493800
   26       -0.0000000000
   27       -0.0000000000
   28        0.0000000000
   29       -0.3711635700
   30       -0.3652616000
   31       -0.3652616000
   32       -0.0000000000
   33       -0.0000000000
   34        0.0000000000
   35        0.0000000000
 Ene=          0.00022372
 Spin= Alpha
 Occup=        0.00000000
    1        0.0119126100
    2       -0.0026146200
    3       -0.0006502500
    4        0.0004073000
    5        0.0000570400
    6        0.0001811200
    7       -0.0000907600
    8       -0.0000200800
    9        0.0000026700
   10       -0.0000012200
   11       -1.1838348400
   12        0.0000000000
   13        0.0000000000
   14        0.3173126200
   15       -0.0000000000
   16       -0.0000000000
   17       -0.0805794400
   18        0.0000000000
   19        0.0000000000
   20        0.0150653400
   21       -0.0000000000
   22        0.0000000000
   23       -0.0036482100
   24       -0.0028664800
   25       -0.0028664800
   26        0.0000000000
   27        0.0000000000
   28       -0.0000000000
   29       -0.0019170300
   30       -0.0015098100
   31       -0.0015098100
   32        0.0000000000
   33       -0.0000000000
   34        0.0000000000
   35        0.0000000000
 Ene=          0.00022652
 Spin= Alpha
 Occup=        0.00000000
    1        0.0000000000
    2       -0.0000000000
    3       -0.0000000000
    4        0.0000000000
    5       -0.0000000000
    6        0.0000000000
    7       -0.0000000000
    8       -0.0000000000
    9       -0.0000000000
   10        0.0000000000
   11       -0.0000000000
   12       -1.1886502300
   13        0.0000080700
   14        0.0000000000
   15        0.3255458500
   16       -0.0000022100
   17       -0.0000000000
   18       -0.0800175900
   19        0.0000005400
   20        0.0000000000
   21        0.0157593600
   22       -0.0000001100
   23       -0.0000000000
   24       -0.0000000000
   25       -0.0000000000
   26        0.0002974000
   27       -0.0000000000
   28        0.0000000000
   29       -0.0000000000
   30       -0.0000000000
   31       -0.0000000000
   32        0.0001802400
   33       -0.0000000000
   34       -0.0000000000
   35        0.0000000000
 Ene=          0.00022652
 Spin= Alpha
 Occup=        0.00000000
    1        0.0000000000
    2       -0.0000000000
    3       -0.0000000000
    4        0.0000000000
    5       -0.0000000000
    6       -0.0000000000
    7        0.0000000000
    8       -0.0000000000
    9       -0.0000000000
   10        0.0000000000
   11       -0.0000000000
   12       -0.0000080700
   13       -1.1886502300
   14        0.0000000000
   15        0.0000022100
   16        0.3255458500
   17       -0.0000000000
   18       -0.0000005400
   19       -0.0800175900
   20        0.0000000000
   21        0.0000001100
   22        0.0157593600
   23       -0.0000000000
   24       -0.0000000000
   25       -0.0000000000
   26        0.0000000000
   27        0.0002974000
   28       -0.0000000000
   29       -0.0000000000
   30       -0.0000000000
   31       -0.0000000000
   32        0.0000000000
   33        0.0001802400
   34        0.0000000000
   35        0.0000000000
 Ene=          0.00032358
 Spin= Alpha
 Occup=        0.00000000
    1       -6.4496063400
    2        1.6811250700
    3        0.4652917600
    4       -0.0730028300
    5        0.0266886200
    6       -0.0001014500
    7        0.0022630600
    8       -0.0004670100
    9        0.0002780300
   10       -0.0000352700
   11       -0.0067690300
   12       -0.0000000000
   13       -0.0000000000
   14        0.0090210700
   15        0.0000000000
   16        0.0000000000
   17       -0.0051151100
   18        0.0000000000
   19       -0.0000000000
   20        0.0076085700
   21       -0.0000000000
   22        0.0000000000
   23        1.3552592900
   24        1.5392295400
   25        1.5392295400
   26        0.0000000000
   27       -0.0000000000
   28        0.0000000000
   29        0.8627262700
   30        0.8478130400
   31        0.8478130400
   32       -0.0000000000
   33        0.0000000000
   34       -0.0000000000
   35        0.0000000000
 Ene=          0.00033029
 Spin= Alpha
 Occup=        0.00000000
    1       -0.7479783600
    2        0.1935890000
    3        0.0537535400
    4       -0.0083844100
    5        0.0031100300
    6        0.0000251500
    7        0.0002621100
    8       -0.0000538800
    9        0.0000329100
   10       -0.0000041500
   11       -0.0016867800
   12       -0.0000000000
   13       -0.0000000000
   14        0.0014970700
   15       -0.0000000000
   16        0.0000000000
   17       -0.0007100900
   18        0.0000000000
   19       -0.0000000000
   20        0.0009377500
   21       -0.0000000000
   22        0.0000000000
   23        1.2605699700
   24       -0.3756163600
   25       -0.3756163600
   26       -0.0000000000
   27       -0.0000000000
   28        0.0000000000
   29       -0.0798257800
   30        0.1877993000
   31        0.1877993000
   32        0.0000000000
   33        0.0000000000
   34       -0.0000000000
   35        0.0000000000
 Ene=          0.00033053
 Spin= Alpha
 Occup=        0.00000000
    1        0.0000000000
    2       -0.0000000000
    3       -0.0000000000
    4       -0.0000000000
    5        0.0000000000
    6       -0.0000000000
    7        0.0000000000
    8       -0.0000000000
    9       -0.0000000000
   10        0.0000000000
   11        0.0000000000
   12       -0.0005075800
   13        0.0000208500
   14        0.0000000000
   15        0.0002259300
   16       -0.0000092800
   17       -0.0000000000
   18       -0.0000489400
   19        0.0000020100
   20       -0.0000000000
   21        0.0000040100
   22       -0.0000001600
   23       -0.0000000000
   24        0.0000000000
   25       -0.0000000000
   26       -1.0969363000
   27        0.0450659400
   28        0.0000000000
   29        0.0000000000
   30       -0.0000000000
   31        0.0000000000
   32        0.1786155600
   33       -0.0073381500
   34       -0.0000000000
   35        0.0000000000
 Ene=          0.00033053
 Spin= Alpha
 Occup=        0.00000000
    1        0.0000000000
    2       -0.0000000000
    3       -0.0000000000
    4        0.0000000000
    5       -0.0000000000
    6       -0.0000000000
    7       -0.0000000000
    8        0.0000000000
    9       -0.0000000000
   10        0.0000000000
   11        0.0000000000
   12       -0.0000208500
   13       -0.0005075800
   14       -0.0000000000
   15        0.0000092800
   16        0.0002259300
   17        0.0000000000
   18       -0.0000020100
   19       -0.0000489400
   20       -0.0000000000
   21        0.0000001600
   22        0.0000040100
   23       -0.0000000000
   24        0.0000000000
   25       -0.0000000000
   26       -0.0450659400
   27       -1.0969363000
   28       -0.0000000000
   29        0.0000000000
   30       -0.0000000000
   31       -0.0000000000
   32        0.0073381500
   33        0.1786155600
   34        0.0000000000
   35        0.0000000000
 Ene=          0.00033150
 Spin= Alpha
 Occup=        0.00000000
    1       -0.0000000000
    2        0.0000000000
    3        0.0000000000
    4       -0.0000000000
    5        0.0000000000
    6        0.0000000000
    7        0.0000000000
    8       -0.0000000000
    9        0.0000000000
   10       -0.0000000000
   11       -0.0000000000
   12        0.0000000000
   13       -0.0000000000
   14        0.0000000000
   15       -0.0000000000
   16        0.0000000000
   17       -0.0000000000
   18        0.0000000000
   19        0.0000000000
   20        0.0000000000
   21       -0.0000000000
   22        0.0000000000
   23        0.0000000000
   24        0.9511626200
   25       -0.9511626200
   26        0.0000000000
   27        0.0000000000
   28       -0.0194753700
   29        0.0000000000
   30       -0.1558868100
   31        0.1558868100
   32       -0.0000000000
   33       -0.0000000000
   34        0.0031918300
   35        0.0000000000
 Ene=          0.00033150
 Spin= Alpha
 Occup=        0.00000000
    1       -0.0000000000
    2        0.0000000000
    3        0.0000000000
    4       -0.0000000000
    5        0.0000000000
    6        0.0000000000
    7        0.0000000000
    8       -0.0000000000
    9        0.0000000000
   10        0.0000000000
   11       -0.0000000000
   12       -0.0000000000
   13        0.0000000000
   14        0.0000000000
   15        0.0000000000
   16       -0.0000000000
   17       -0.0000000000
   18       -0.0000000000
   19       -0.0000000000
   20        0.0000000000
   21        0.0000000000
   22        0.0000000000
   23        0.0000000000
   24       -0.0168661600
   25        0.0168661600
   26       -0.0000000000
   27        0.0000000000
   28       -1.0983079900
   29        0.0000000000
   30        0.0027642100
   31       -0.0027642100
   32        0.0000000000
   33       -0.0000000000
   34        0.1800025900
   35        0.0000000000
 Ene=          0.00082726
 Spin= Alpha
 Occup=        0.00000000
    1       10.0168122700
    2       -3.4748814500
    3       -0.9402550500
    4        0.1883388800
    5       -0.0343580800
    6        0.0230525100
    7       -0.0027126100
    8        0.0011533300
    9       -0.0000246100
   10        0.0000318300
   11       -0.0446742500
   12       -0.0000000000
   13       -0.0000000000
   14        0.0824631800
   15        0.0000000000
   16        0.0000000000
   17       -0.0212572700
   18       -0.0000000000
   19       -0.0000000000
   20        0.0162248000
   21        0.0000000000
   22        0.0000000000
   23       -1.7102319900
   24       -1.7296742400
   25       -1.7296742400
   26        0.0000000000
   27        0.0000000000
   28       -0.0000000000
   29       -1.9099587600
   30       -1.8697707900
   31       -1.8697707900
   32       -0.0000000000
   33       -0.0000000000
   34        0.0000000000
   35        0.0000000000
 Ene=          0.00092632
 Spin= Alpha
 Occup=        0.00000000
    1       -0.5439795300
    2        0.1764739800
    3        0.0508943600
    4       -0.0146353300
    5        0.0007652300
    6       -0.0036288200
    7        0.0011970700
    8        0.0002709700
    9       -0.0000528000
   10        0.0000176900
   11       -0.8798631100
   12        0.0000000000
   13        0.0000000000
   14        1.6391086000
   15       -0.0000000000
   16       -0.0000000000
   17       -0.3190593200
   18        0.0000000000
   19        0.0000000000
   20        0.0564522300
   21       -0.0000000000
   22       -0.0000000000
   23        0.0882290900
   24        0.0925544100
   25        0.0925544100
   26       -0.0000000000
   27       -0.0000000000
   28        0.0000000000
   29        0.1166676300
   30        0.1082312700
   31        0.1082312700
   32        0.0000000000
   33       -0.0000000000
   34       -0.0000000000
   35        0.0000000000
 Ene=          0.00094290
 Spin= Alpha
 Occup=        0.00000000
    1        0.0000000000
    2       -0.0000000000
    3       -0.0000000000
    4        0.0000000000
    5       -0.0000000000
    6        0.0000000000
    7       -0.0000000000
    8       -0.0000000000
    9        0.0000000000
   10       -0.0000000000
   11        0.0000000000
   12        0.0082433100
   13        0.8785865300
   14       -0.0000000000
   15       -0.0155169900
   16       -1.6538276700
   17        0.0000000000
   18        0.0031603500
   19        0.3368351200
   20       -0.0000000000
   21       -0.0005265700
   22       -0.0561227600
   23       -0.0000000000
   24       -0.0000000000
   25       -0.0000000000
   26       -0.0000147800
   27       -0.0015750900
   28       -0.0000000000
   29       -0.0000000000
   30       -0.0000000000
   31       -0.0000000000
   32        0.0000289700
   33        0.0030881200
   34       -0.0000000000
   35        0.0000000000
 Ene=          0.00094290
 Spin= Alpha
 Occup=        0.00000000
    1        0.0000000000
    2       -0.0000000000
    3       -0.0000000000
    4        0.0000000000
    5       -0.0000000000
    6        0.0000000000
    7       -0.0000000000
    8        0.0000000000
    9       -0.0000000000
   10        0.0000000000
   11        0.0000000000
   12        0.8785865300
   13       -0.0082433100
   14       -0.0000000000
   15       -1.6538276700
   16        0.0155169900
   17        0.0000000000
   18        0.3368351200
   19       -0.0031603500
   20       -0.0000000000
   21       -0.0561227600
   22        0.0005265700
   23       -0.0000000000
   24       -0.0000000000
   25       -0.0000000000
   26       -0.0015750900
   27        0.0000147800
   28       -0.0000000000
   29       -0.0000000000
   30       -0.0000000000
   31       -0.0000000000
   32        0.0030881200
   33       -0.0000289700
   34        0.0000000000
   35        0.0000000000
 Ene=          0.00126531
 Spin= Alpha
 Occup=        0.00000000
    1        0.3031495600
    2       -0.0658215000
    3       -0.0380683400
    4        0.0070430000
    5       -0.0019621500
    6        0.0000988000
    7       -0.0000293300
    8        0.0000584500
    9       -0.0000166300
   10        0.0000035800
   11        0.0029828000
   12       -0.0000000000
   13        0.0000000000
   14       -0.0067404400
   15        0.0000000000
   16       -0.0000000000
   17        0.0030371100
   18       -0.0000000000
   19        0.0000000000
   20       -0.0005883600
   21       -0.0000000000
   22        0.0000000000
   23       -0.6564446000
   24        0.2566461700
   25        0.2566461700
   26       -0.0000000000
   27        0.0000000000
   28       -0.0000000000
   29        1.1650385500
   30       -0.6980168500
   31       -0.6980168500
   32        0.0000000000
   33       -0.0000000000
   34        0.0000000000
   35        0.0000000000
 Ene=          0.00126806
 Spin= Alpha
 Occup=        0.00000000
    1        0.0000000000
    2       -0.0000000000
    3        0.0000000000
    4       -0.0000000000
    5        0.0000000000
    6       -0.0000000000
    7        0.0000000000
    8       -0.0000000000
    9        0.0000000000
   10       -0.0000000000
   11        0.0000000000
   12        0.0022412100
   13       -0.0000294200
   14       -0.0000000000
   15       -0.0048940800
   16        0.0000642400
   17        0.0000000000
   18        0.0017860000
   19       -0.0000234400
   20       -0.0000000000
   21        0.0001543300
   22       -0.0000020300
   23       -0.0000000000
   24       -0.0000000000
   25        0.0000000000
   26        0.6085358500
   27       -0.0079882000
   28       -0.0000000000
   29        0.0000000000
   30        0.0000000000
   31       -0.0000000000
   32       -1.2423560900
   33        0.0163083000
   34        0.0000000000
   35        0.0000000000
 Ene=          0.00126806
 Spin= Alpha
 Occup=        0.00000000
    1        0.0000000000
    2       -0.0000000000
    3       -0.0000000000
    4        0.0000000000
    5       -0.0000000000
    6        0.0000000000
    7       -0.0000000000
    8        0.0000000000
    9       -0.0000000000
   10        0.0000000000
   11        0.0000000000
   12       -0.0000294200
   13       -0.0022412100
   14       -0.0000000000
   15        0.0000642400
   16        0.0048940800
   17        0.0000000000
   18       -0.0000234400
   19       -0.0017860000
   20       -0.0000000000
   21       -0.0000020300
   22       -0.0001543300
   23       -0.0000000000
   24        0.0000000000
   25        0.0000000000
   26       -0.0079882000
   27       -0.6085358500
   28       -0.0000000000
   29        0.0000000000
   30       -0.0000000000
   31       -0.0000000000
   32        0.0163083000
   33        1.2423560900
   34        0.0000000000
   35        0.0000000000
 Ene=          0.00127600
 Spin= Alpha
 Occup=        0.00000000
    1       -0.0000000000
    2        0.0000000000
    3       -0.0000000000
    4       -0.0000000000
    5        0.0000000000
    6       -0.0000000000
    7        0.0000000000
    8       -0.0000000000
    9        0.0000000000
   10       -0.0000000000
   11       -0.0000000000
   12       -0.0000000000
   13        0.0000000000
   14        0.0000000000
   15        0.0000000000
   16       -0.0000000000
   17       -0.0000000000
   18       -0.0000000000
   19        0.0000000000
   20       -0.0000000000
   21       -0.0000000000
   22        0.0000000000
   23        0.0000000000
   24        0.0475863600
   25       -0.0475863600
   26       -0.0000000000
   27        0.0000000000
   28       -0.6049824000
   29       -0.0000000000
   30       -0.0973143700
   31        0.0973143700
   32        0.0000000000
   33       -0.0000000000
   34        1.2371923100
   35        0.0000000000
 Ene=          0.00127600
 Spin= Alpha
 Occup=        0.00000000
    1        0.0000000000
    2       -0.0000000000
    3        0.0000000000
    4       -0.0000000000
    5        0.0000000000
    6        0.0000000000
    7        0.0000000000
    8        0.0000000000
    9       -0.0000000000
   10        0.0000000000
   11        0.0000000000
   12       -0.0000000000
   13        0.0000000000
   14       -0.0000000000
   15        0.0000000000
   16       -0.0000000000
   17        0.0000000000
   18       -0.0000000000
   19        0.0000000000
   20        0.0000000000
   21       -0.0000000000
   22       -0.0000000000
   23       -0.0000000000
   24       -0.5239301300
   25        0.5239301300
   26       -0.0000000000
   27       -0.0000000000
   28       -0.0549480000
   29        0.0000000000
   30        1.0714399700
   31       -1.0714399700
   32        0.0000000000
   33        0.0000000000
   34        0.1123689600
   35        0.0000000000
 Ene=          0.00179627
 Spin= Alpha
 Occup=        0.00000000
    1      -10.1769680200
    2       -0.4290112100
    3        2.1484507900
    4       -0.3076994700
    5        0.1026302100
    6       -0.0054973600
    7        0.0084193600
    8       -0.0018225100
    9        0.0009515900
   10       -0.0001259700
   11        0.0106449700
   12        0.0000000000
   13        0.0000000000
   14       -0.0223656500
   15       -0.0000000000
   16       -0.0000000000
   17        0.0022745100
   18        0.0000000000
   19        0.0000000000
   20        0.0238470400
   21       -0.0000000000
   22        0.0000000000
   23        1.5147623200
   24        1.5282611100
   25        1.5282611100
   26       -0.0000000000
   27       -0.0000000000
   28       -0.0000000000
   29        3.3245753200
   30        3.2976132000
   31        3.2976132000
   32        0.0000000000
   33        0.0000000000
   34        0.0000000000
   35        0.0000000000
 Ene=          0.00302527
 Spin= Alpha
 Occup=        0.00000000
    1        0.3521797100
    2        0.1685281900
    3       -0.2045643800
    4        0.0183239200
    5       -0.0089935600
    6       -0.0023546300
    7        0.0017721900
    8        0.0007588300
    9       -0.0001181700
   10        0.0000421000
   11        0.4705249000
   12       -0.0000000000
   13       -0.0000000000
   14       -1.3570614900
   15        0.0000000000
   16        0.0000000000
   17        1.7398281200
   18       -0.0000000000
   19       -0.0000000000
   20       -0.2388885400
   21        0.0000000000
   22        0.0000000000
   23       -0.0499633400
   24       -0.0509677600
   25       -0.0509677600
   26        0.0000000000
   27       -0.0000000000
   28        0.0000000000
   29       -0.1477323000
   30       -0.1456775900
   31       -0.1456775900
   32       -0.0000000000
   33       -0.0000000000
   34       -0.0000000000
   35        0.0000000000
 Ene=          0.00310862
 Spin= Alpha
 Occup=        0.00000000
    1       -0.0000000000
    2       -0.0000000000
    3        0.0000000000
    4       -0.0000000000
    5        0.0000000000
    6       -0.0000000000
    7       -0.0000000000
    8       -0.0000000000
    9        0.0000000000
   10       -0.0000000000
   11       -0.0000000000
   12       -0.0008404900
   13       -0.4658421800
   14        0.0000000000
   15        0.0024342200
   16        1.3491642200
   17       -0.0000000000
   18       -0.0031727500
   19       -1.7584944400
   20        0.0000000000
   21        0.0004719700
   22        0.2615871400
   23        0.0000000000
   24        0.0000000000
   25        0.0000000000
   26        0.0000008900
   27        0.0004931100
   28        0.0000000000
   29        0.0000000000
   30        0.0000000000
   31        0.0000000000
   32       -0.0000018100
   33       -0.0010032700
   34       -0.0000000000
   35        0.0000000000
 Ene=          0.00310862
 Spin= Alpha
 Occup=        0.00000000
    1       -0.0000000000
    2       -0.0000000000
    3        0.0000000000
    4       -0.0000000000
    5        0.0000000000
    6       -0.0000000000
    7       -0.0000000000
    8       -0.0000000000
    9        0.0000000000
   10       -0.0000000000
   11       -0.0000000000
   12       -0.4658421800
   13        0.0008404900
   14        0.0000000000
   15        1.3491642200
   16       -0.0024342200
   17       -0.0000000000
   18       -1.7584944400
   19        0.0031727500
   20        0.0000000000
   21        0.2615871400
   22       -0.0004719700
   23        0.0000000000
   24        0.0000000000
   25        0.0000000000
   26        0.0004931100
   27       -0.0000008900
   28        0.0000000000
   29        0.0000000000
   30        0.0000000000
   31        0.0000000000
   32       -0.0010032700
   33        0.0000018100
   34       -0.0000000000
   35        0.0000000000
 Ene=          0.00390939
 Spin= Alpha
 Occup=        0.00000000
    1       -7.6318541000
    2       -5.0351999300
    3        6.2529817100
    4       -1.0768615700
    5        0.1888159600
    6       -0.0968979700
    7        0.0144932600
    8       -0.0054160500
    9        0.0005044700
   10       -0.0001816100
   11        0.0233471900
   12        0.0000000000
   13        0.0000000000
   14       -0.0732209500
   15       -0.0000000000
   16       -0.0000000000
   17        0.1260628600
   18        0.0000000000
   19        0.0000000000
   20       -0.0783292700
   21       -0.0000000000
   22       -0.0000000000
   23        1.0887802600
   24        1.0869976100
   25        1.0869976100
   26       -0.0000000000
   27       -0.0000000000
   28       -0.0000000000
   29        3.4091942800
   30        3.4127101600
   31        3.4127101600
   32        0.0000000000
   33        0.0000000000
   34        0.0000000000
   35        0.0000000000
 Ene=          0.00940481
 Spin= Alpha
 Occup=        0.00000000
    1       -3.4786581700
    2       -3.2901842600
    3        4.9128224100
    4       -2.8080218800
    5        0.6515412900
    6       -0.1171803500
    7        0.0580564200
    8       -0.0074095500
    9        0.0037357900
   10       -0.0004271700
   11       -0.1551003500
   12        0.0000000000
   13       -0.0000000000
   14        0.4809204900
   15       -0.0000000000
   16        0.0000000000
   17       -0.9589879000
   18        0.0000000000
   19       -0.0000000000
   20        1.0364593100
   21       -0.0000000000
   22       -0.0000000000
   23        0.4941645500
   24        0.4942675600
   25        0.4942675600
   26       -0.0000000000
   27       -0.0000000000
   28        0.0000000000
   29        1.6991342400
   30        1.6989359000
   31        1.6989359000
   32        0.0000000000
   33        0.0000000000
   34       -0.0000000000
   35        0.0000000000
 Ene=          0.01030310
 Spin= Alpha
 Occup=        0.00000000
    1        0.0000000000
    2        0.0000000000
    3       -0.0000000000
    4        0.0000000000
    5       -0.0000000000
    6        0.0000000000
    7       -0.0000000000
    8        0.0000000000
    9       -0.0000000000
   10        0.0000000000
   11       -0.0000000000
   12       -0.0009659200
   13        0.2246974300
   14        0.0000000000
   15        0.0029858900
   16       -0.6945953800
   17       -0.0000000000
   18       -0.0059749400
   19        1.3899245100
   20        0.0000000000
   21        0.0066325000
   22       -1.5428888300
   23       -0.0000000000
   24       -0.0000000000
   25       -0.0000000000
   26       -0.0000008700
   27        0.0002019600
   28       -0.0000000000
   29       -0.0000000000
   30       -0.0000000000
   31       -0.0000000000
   32        0.0000017400
   33       -0.0004044100
   34        0.0000000000
   35        0.0000000000
 Ene=          0.01030310
 Spin= Alpha
 Occup=        0.00000000
    1        0.0000000000
    2        0.0000000000
    3       -0.0000000000
    4        0.0000000000
    5       -0.0000000000
    6        0.0000000000
    7       -0.0000000000
    8        0.0000000000
    9       -0.0000000000
   10        0.0000000000
   11       -0.0000000000
   12        0.2246974300
   13        0.0009659200
   14        0.0000000000
   15       -0.6945953800
   16       -0.0029858900
   17       -0.0000000000
   18        1.3899245100
   19        0.0059749400
   20        0.0000000000
   21       -1.5428888300
   22       -0.0066325000
   23       -0.0000000000
   24       -0.0000000000
   25       -0.0000000000
   26        0.0002019600
   27        0.0000008700
   28       -0.0000000000
   29       -0.0000000000
   30       -0.0000000000
   31       -0.0000000000
   32       -0.0004044100
   33       -0.0000017400
   34       -0.0000000000
   35        0.0000000000
 Ene=          0.01067540
 Spin= Alpha
 Occup=        0.00000000
    1        3.0438142000
    2        2.9134157600
    3       -4.4311129800
    4        2.7814476800
    5       -0.7986969600
    6        0.0672505700
    7       -0.0353303000
    8        0.0171626300
    9       -0.0055303700
   10        0.0009860400
   11       -0.1680232300
   12       -0.0000000000
   13       -0.0000000000
   14        0.5175754400
   15        0.0000000000
   16        0.0000000000
   17       -1.0299926500
   18       -0.0000000000
   19       -0.0000000000
   20        1.1372865400
   21        0.0000000000
   22        0.0000000000
   23       -0.4327545300
   24       -0.4328620800
   25       -0.4328620800
   26        0.0000000000
   27        0.0000000000
   28        0.0000000000
   29       -1.4898931800
   30       -1.4896801700
   31       -1.4896801700
   32       -0.0000000000
   33       -0.0000000000
   34        0.0000000000
   35        0.0000000000
 Ene=          0.03016340
 Spin= Alpha
 Occup=        0.00000000
    1       -2.4978844100
    2       -2.4208750800
    3        3.9876590900
    4       -3.8936818500
    5        3.6179133100
    6       -1.2710557300
    7        0.2296523500
    8       -0.0692868200
    9        0.0120783100
   10       -0.0027220700
   11       -0.0166071900
   12       -0.0000000000
   13       -0.0000000000
   14        0.0494872200
   15       -0.0000000000
   16        0.0000000000
   17       -0.0962030700
   18        0.0000000000
   19       -0.0000000000
   20        0.1151441200
   21        0.0000000000
   22        0.0000000000
   23        0.3573931200
   24        0.3575681200
   25        0.3575681200
   26       -0.0000000000
   27       -0.0000000000
   28        0.0000000000
   29        1.2179238400
   30        1.2175743200
   31        1.2175743200
   32        0.0000000000
   33        0.0000000000
   34       -0.0000000000
   35        0.0000000000
 Ene=          0.10322500
 Spin= Alpha
 Occup=        0.00000000
    1       -1.2612795800
    2       -1.1824209400
    3        1.9735841800
    4       -2.1212652200
    5        3.0558504200
    6       -3.3922973700
    7        1.2872431900
    8       -0.2657014700
    9        0.0877194900
   10       -0.0131869400
   11        0.0090162900
   12        0.0000000000
   13        0.0000000000
   14       -0.0265225700
   15       -0.0000000000
   16       -0.0000000000
   17        0.0508382900