[Molden Format]
[Title]
 Molden2AIM, Version 3.1.0 (02/25/2015)           Time: Mon Dec  2 17:18:45 2024

[Atoms] AU
BE       1       4     0.00000000     0.00000000     0.00000000
BE       2       4     4.54000000     0.00000000     0.00000000
[GTO]
    1 0
 S   6 1.0
    0.1682800000D+04      0.2285740532D-02
    0.2517150000D+03      0.1759380410D-01
    0.5741160000D+02      0.8633152009D-01
    0.1651710000D+02      0.2818350656D+00
    0.4853640000D+01      0.6405941491D+00
    0.6268630000D+00      0.1444670336D+00
 S   3 1.0
    0.8309380000D+01      0.1086210323D+00
    0.1740750000D+01      0.9273012759D+00
    0.4858160000D+00     -0.2971690884D-02
 P   3 1.0
    0.8309380000D+01      0.3613440323D-01
    0.1740750000D+01      0.2169580194D+00
    0.4858160000D+00      0.8418390753D+00
 S   1 1.0
    0.1636130000D+00      0.1000000000D+01
 P   1 1.0
    0.1636130000D+00      0.1000000000D+01
 S   1 1.0
    0.5672850000D-01      0.1000000000D+01
 P   1 1.0
    0.5672850000D-01      0.1000000000D+01
 S   1 1.0
    0.2070000000D-01      0.1000000000D+01
 P   1 1.0
    0.2070000000D-01      0.1000000000D+01
 D   1 1.0
    0.2550000000D+00      0.1000000000D+01

    2 0
 S   6 1.0
    0.1682800000D+04      0.2285740532D-02
    0.2517150000D+03      0.1759380410D-01
    0.5741160000D+02      0.8633152009D-01
    0.1651710000D+02      0.2818350656D+00
    0.4853640000D+01      0.6405941491D+00
    0.6268630000D+00      0.1444670336D+00
 S   3 1.0
    0.8309380000D+01      0.1086210323D+00
    0.1740750000D+01      0.9273012759D+00
    0.4858160000D+00     -0.2971690884D-02
 P   3 1.0
    0.8309380000D+01      0.3613440323D-01
    0.1740750000D+01      0.2169580194D+00
    0.4858160000D+00      0.8418390753D+00
 S   1 1.0
    0.1636130000D+00      0.1000000000D+01
 P   1 1.0
    0.1636130000D+00      0.1000000000D+01
 S   1 1.0
    0.5672850000D-01      0.1000000000D+01
 P   1 1.0
    0.5672850000D-01      0.1000000000D+01
 S   1 1.0
    0.2070000000D-01      0.1000000000D+01
 P   1 1.0
    0.2070000000D-01      0.1000000000D+01
 D   1 1.0
    0.2550000000D+00      0.1000000000D+01


[MO]
 Ene=         -4.10232000
 Spin= Alpha
 Occup=        2.00000000
    1       -0.4221449500
    2       -0.3079104200
    3       -0.0001341100
    4       -0.0000000000
    5        0.0000000000
    6       -0.0247004400
    7       -0.0000535000
    8        0.0000000000
    9       -0.0000000000
   10       -0.0017948700
   11       -0.0001238800
   12       -0.0000000000
   13        0.0000000000
   14        0.0007639500
   15        0.0002969300
   16        0.0000000000
   17       -0.0000000000
   18        0.0085675700
   19        0.0089617700
   20        0.0089617700
   21        0.0000000000
   22        0.0000000000
   23       -0.0000000000
   24       -0.4208353200
   25       -0.3069553900
   26        0.0001332000
   27        0.0000000000
   28       -0.0000000000
   29       -0.0246246400
   30        0.0000594500
   31       -0.0000000000
   32        0.0000000000
   33       -0.0017768900
   34        0.0001169300
   35        0.0000000000
   36       -0.0000000000
   37        0.0007262400
   38       -0.0002849500
   39       -0.0000000000
   40        0.0000000000
   41        0.0085355000
   42        0.0089337800
   43        0.0089337800
   44        0.0000000000
   45       -0.0000000000
   46        0.0000000000
 Ene=         -4.10227000
 Spin= Alpha
 Occup=        2.00000000
    1        0.4208825800
    2        0.3069311300
    3        0.0002772100
    4        0.0000000000
    5        0.0000000000
    6        0.0243770200
    7       -0.0018963200
    8       -0.0000000000
    9       -0.0000000000
   10        0.0057822600
   11        0.0022278100
   12        0.0000000000
   13        0.0000000000
   14       -0.0121430800
   15       -0.0038565500
   16       -0.0000000000
   17       -0.0000000000
   18       -0.0103082900
   19       -0.0089987900
   20       -0.0089987900
   21       -0.0000000000
   22        0.0000000000
   23        0.0000000000
   24       -0.4221920200
   25       -0.3078862500
   26        0.0002775700
   27        0.0000000000
   28        0.0000000000
   29       -0.0244536900
   30       -0.0018961200
   31       -0.0000000000
   32        0.0000000000
   33       -0.0057878000
   34        0.0022281700
   35        0.0000000000
   36       -0.0000000000
   37        0.0121454000
   38       -0.0038574400
   39        0.0000000000
   40        0.0000000000
   41        0.0103348700
   42        0.0090266000
   43        0.0090266000
   44        0.0000000000
   45        0.0000000000
   46       -0.0000000000
 Ene=         -0.32023500
 Spin= Alpha
 Occup=        2.00000000
    1       -0.0839465600
    2       -0.1250993500
    3        0.0627327800
    4       -0.0000000000
    5        0.0000000000
    6        0.3976996100
    7        0.0861948800
    8       -0.0000000000
    9       -0.0000000000
   10        0.1806952800
   11        0.0303985800
   12       -0.0000000000
   13        0.0000000000
   14        0.0380639800
   15        0.0161815900
   16       -0.0000000000
   17       -0.0000000000
   18        0.0124350200
   19       -0.0147484900
   20       -0.0147484900
   21       -0.0000000000
   22       -0.0000000000
   23        0.0000000000
   24       -0.0839468400
   25       -0.1250997800
   26       -0.0627326100
   27       -0.0000000000
   28       -0.0000000000
   29        0.3977017900
   30       -0.0861938800
   31        0.0000000000
   32       -0.0000000000
   33        0.1806966400
   34       -0.0303974800
   35       -0.0000000000
   36       -0.0000000000
   37        0.0380306900
   38       -0.0161739400
   39        0.0000000000
   40        0.0000000000
   41        0.0124350800
   42       -0.0147482200
   43       -0.0147482200
   44       -0.0000000000
   45       -0.0000000000
   46       -0.0000000000
 Ene=         -0.20414400
 Spin= Alpha
 Occup=        2.00000000
    1       -0.0813385600
    2       -0.1241172200
    3       -0.0629638800
    4        0.0000000000
    5       -0.0000000000
    6        0.4057819500
    7       -0.0874304400
    8        0.0000000000
    9       -0.0000000000
   10        0.4618283700
   11        0.0281339800
   12        0.0000000000
   13       -0.0000000000
   14        0.4817686200
   15        0.0797297700
   16        0.0000000000
   17        0.0000000000
   18       -0.0105182700
   19       -0.0046091900
   20       -0.0046091900
   21        0.0000000000
   22       -0.0000000000
   23        0.0000000000
   24        0.0813391500
   25        0.1241182300
   26       -0.0629621500
   27        0.0000000000
   28       -0.0000000000
   29       -0.4057836200
   30       -0.0874291000
   31       -0.0000000000
   32       -0.0000000000
   33       -0.4618482800
   34        0.0281327100
   35       -0.0000000000
   36       -0.0000000000
   37       -0.4817319000
   38        0.0797520700
   39       -0.0000000000
   40       -0.0000000000
   41        0.0105178900
   42        0.0046098400
   43        0.0046098400
   44        0.0000000000
   45        0.0000000000
   46        0.0000000000
 Ene=         -0.13426600
 Spin= Alpha
 Occup=        0.00000000
    1       -0.0000000000
    2        0.0000000000
    3        0.0000000000
    4       -0.0509170700
    5       -0.0684964500
    6        0.0000000000
    7        0.0000000000
    8       -0.1133314600
    9       -0.1524597300
   10       -0.0000000000
   11       -0.0000000000
   12        0.0401948200
   13        0.0540722900
   14        0.0000000000
   15        0.0000000000
   16       -0.2880704500
   17       -0.3875282500
   18        0.0000000000
   19        0.0000000000
   20        0.0000000000
   21       -0.0093089900
   22       -0.0125229700
   23        0.0000000000
   24       -0.0000000000
   25       -0.0000000000
   26       -0.0000000000
   27       -0.0509160600
   28       -0.0684950900
   29       -0.0000000000
   30       -0.0000000000
   31       -0.1133217800
   32       -0.1524467000
   33        0.0000000000
   34       -0.0000000000
   35        0.0401612200
   36        0.0540270900
   37       -0.0000000000
   38        0.0000000000
   39       -0.2879048200
   40       -0.3873054400
   41       -0.0000000000
   42       -0.0000000000
   43       -0.0000000000
   44        0.0093095400
   45        0.0125237100
   46        0.0000000000
 Ene=         -0.13426600
 Spin= Alpha
 Occup=        0.00000000
    1       -0.0000000000
    2       -0.0000000000
    3       -0.0000000000
    4        0.0684964500
    5       -0.0509170700
    6       -0.0000000000
    7        0.0000000000
    8        0.1524597300
    9       -0.1133314600
   10        0.0000000000
   11        0.0000000000
   12       -0.0540722900
   13        0.0401948200
   14       -0.0000000000
   15       -0.0000000000
   16        0.3875282500
   17       -0.2880704500
   18       -0.0000000000
   19       -0.0000000000
   20       -0.0000000000
   21        0.0125229700
   22       -0.0093089900
   23        0.0000000000
   24       -0.0000000000
   25        0.0000000000
   26       -0.0000000000
   27        0.0684950900
   28       -0.0509160600
   29        0.0000000000
   30        0.0000000000
   31        0.1524467000
   32       -0.1133217800
   33       -0.0000000000
   34        0.0000000000
   35       -0.0540270900
   36        0.0401612200
   37        0.0000000000
   38       -0.0000000000
   39        0.3873054400
   40       -0.2879048200
   41        0.0000000000
   42        0.0000000000
   43        0.0000000000
   44       -0.0125237100
   45        0.0093095400
   46       -0.0000000000
 Ene=         -0.11845100
 Spin= Alpha
 Occup=        0.00000000
    1       -0.0019433000
    2       -0.0102073500
    3        0.1279020100
    4        0.0000000000
    5        0.0000000000
    6       -0.0828676300
    7        0.1973595800
    8        0.0000000000
    9        0.0000000000
   10        0.6011439300
   11        0.1210903200
   12        0.0000000000
   13       -0.0000000000
   14       -0.7432270200
   15       -0.1560016500
   16        0.0000000000
   17        0.0000000000
   18       -0.0115750300
   19       -0.0364865000
   20       -0.0364865000
   21        0.0000000000
   22        0.0000000000
   23       -0.0000000000
   24       -0.0019358200
   25       -0.0101957300
   26       -0.1279097200
   27        0.0000000000
   28        0.0000000000
   29       -0.0829058900
   30       -0.1973518600
   31        0.0000000000
   32        0.0000000000
   33        0.6011416200
   34       -0.1212108400
   35        0.0000000000
   36        0.0000000000
   37       -0.7439156700
   38        0.1563962200
   39        0.0000000000
   40        0.0000000000
   41       -0.0115728300
   42       -0.0364862800
   43       -0.0364862800
   44       -0.0000000000
   45       -0.0000000000
   46       -0.0000000000
 Ene=         -0.09447020
 Spin= Alpha
 Occup=        0.00000000
    1        0.0264456900
    2        0.0502719600
    3        0.1099069500
    4       -0.0000000000
    5       -0.0000000000
    6        0.0019384900
    7        0.1929969700
    8       -0.0000000000
    9       -0.0000000000
   10       -1.0715884900
   11        0.0712187700
   12       -0.0000000000
   13        0.0000000000
   14        0.6187852200
   15        0.7949201200
   16       -0.0000000000
   17        0.0000000000
   18        0.0367069700
   19        0.0411432800
   20        0.0411432800
   21       -0.0000000000
   22        0.0000000000
   23        0.0000000000
   24        0.0264517200
   25        0.0502785800
   26       -0.1099121000
   27       -0.0000000000
   28       -0.0000000000
   29        0.0018535500
   30       -0.1929835500
   31       -0.0000000000
   32       -0.0000000000
   33       -1.0710481000
   34       -0.0714828500
   35       -0.0000000000
   36       -0.0000000000
   37        0.6117940300
   38       -0.7922932300
   39        0.0000000000
   40       -0.0000000000
   41        0.0367036200
   42        0.0411287900
   43        0.0411287900
   44        0.0000000000
   45        0.0000000000
   46        0.0000000000
 Ene=         -0.08262780
 Spin= Alpha
 Occup=        0.00000000
    1        0.0000000000
    2        0.0000000000
    3        0.0000000000
    4        0.0044090400
    5       -0.1554665900
    6       -0.0000000000
    7       -0.0000000000
    8        0.0024037900
    9       -0.0847597100
   10        0.0000000000
   11        0.0000000000
   12        0.0189111400
   13       -0.6668226500
   14       -0.0000000000
   15       -0.0000000000
   16       -0.0181032800
   17        0.6383368400
   18       -0.0000000000
   19       -0.0000000000
   20       -0.0000000000
   21        0.0005597300
   22       -0.0197366900
   23        0.0000000000
   24       -0.0000000000
   25       -0.0000000000
   26        0.0000000000
   27        0.0044099800
   28       -0.1554994900
   29        0.0000000000
   30       -0.0000000000
   31        0.0024081500
   32       -0.0849132200
   33       -0.0000000000
   34        0.0000000000
   35        0.0189021600
   36       -0.6665058600
   37        0.0000000000
   38       -0.0000000000
   39       -0.0180541000
   40        0.6366027000
   41        0.0000000000
   42        0.0000000000
   43        0.0000000000
   44       -0.0005594000
   45        0.0197249600
   46       -0.0000000000
 Ene=         -0.08262780
 Spin= Alpha
 Occup=        0.00000000
    1        0.0000000000
    2        0.0000000000
    3        0.0000000000
    4        0.1554665900
    5        0.0044090400
    6       -0.0000000000
    7       -0.0000000000
    8        0.0847597100
    9        0.0024037900
   10       -0.0000000000
   11        0.0000000000
   12        0.6668226500
   13        0.0189111400
   14        0.0000000000
   15        0.0000000000
   16       -0.6383368400
   17       -0.0181032800
   18        0.0000000000
   19       -0.0000000000
   20        0.0000000000
   21        0.0197366900
   22        0.0005597300
   23        0.0000000000
   24       -0.0000000000
   25        0.0000000000
   26       -0.0000000000
   27        0.1554994900
   28        0.0044099800
   29        0.0000000000
   30       -0.0000000000
   31        0.0849132200
   32        0.0024081500
   33       -0.0000000000
   34        0.0000000000
   35        0.6665058600
   36        0.0189021600
   37       -0.0000000000
   38        0.0000000000
   39       -0.6366027000
   40       -0.0180541000
   41        0.0000000000
   42        0.0000000000
   43        0.0000000000
   44       -0.0197249600
   45       -0.0005594000
   46       -0.0000000000
 Ene=         -0.08002620
 Spin= Alpha
 Occup=        0.00000000
    1       -0.0172084000
    2       -0.0212632400
    3       -0.0181329300
    4       -0.0000000000
    5       -0.0000000000
    6        0.2031031400
    7        0.0557398600
    8       -0.0000000000
    9       -0.0000000000
   10       -1.1908722900
   11       -0.7633588900
   12        0.0000000000
   13       -0.0000000000
   14       14.6424384300
   15        5.6829675000
   16       -0.0000000000
   17        0.0000000000
   18        0.0024169300
   19        0.0308543200
   20        0.0308543200
   21        0.0000000000
   22       -0.0000000000
   23       -0.0000000000
   24        0.0171870900
   25        0.0212257700
   26       -0.0179780600
   27        0.0000000000
   28       -0.0000000000
   29       -0.2030335100
   30        0.0558574200
   31        0.0000000000
   32       -0.0000000000
   33        1.1914772700
   34       -0.7628242000
   35       -0.0000000000
   36       -0.0000000000
   37      -14.6430867200
   38        5.6821597100
   39        0.0000000000
   40        0.0000000000
   41       -0.0024533100
   42       -0.0308645100
   43       -0.0308645100
   44        0.0000000000
   45        0.0000000000
   46        0.0000000000
 Ene=         -0.07474020
 Spin= Alpha
 Occup=        0.00000000
    1       -0.0000000000
    2       -0.0000000000
    3       -0.0000000000
    4        0.0001800000
    5       -0.0457986600
    6        0.0000000000
    7        0.0000000000
    8        0.0006508600
    9       -0.1656033300
   10       -0.0000000000
   11       -0.0000000000
   12       -0.0010276000
   13        0.2614608900
   14        0.0000000000
   15        0.0000000000
   16        0.0069063400
   17       -1.7572388700
   18       -0.0000000000
   19        0.0000000000
   20        0.0000000000
   21       -0.0000493400
   22        0.0125549100
   23       -0.0000000000
   24        0.0000000000
   25        0.0000000000
   26       -0.0000000000
   27       -0.0001794700
   28        0.0456637200
   29       -0.0000000000
   30        0.0000000000
   31       -0.0006506300
   32        0.1655466300
   33        0.0000000000
   34       -0.0000000000
   35        0.0010300900
   36       -0.2620938300
   37       -0.0000000000
   38        0.0000000000
   39       -0.0069089600
   40        1.7579064800
   41        0.0000000000
   42       -0.0000000000
   43       -0.0000000000
   44       -0.0000494100
   45        0.0125719400
   46        0.0000000000
 Ene=         -0.07474020
 Spin= Alpha
 Occup=        0.00000000
    1        0.0000000000
    2        0.0000000000
    3        0.0000000000
    4       -0.0457986600
    5       -0.0001800000
    6       -0.0000000000
    7       -0.0000000000
    8       -0.1656033300
    9       -0.0006508600
   10        0.0000000000
   11        0.0000000000
   12        0.2614608900
   13        0.0010276000
   14       -0.0000000000
   15       -0.0000000000
   16       -1.7572388700
   17       -0.0069063400
   18       -0.0000000000
   19       -0.0000000000
   20       -0.0000000000
   21        0.0125549100
   22        0.0000493400
   23       -0.0000000000
   24       -0.0000000000
   25       -0.0000000000
   26        0.0000000000
   27        0.0456637200
   28        0.0001794700
   29        0.0000000000
   30       -0.0000000000
   31        0.1655466300
   32        0.0006506300
   33       -0.0000000000
   34        0.0000000000
   35       -0.2620938300
   36       -0.0010300900
   37        0.0000000000
   38       -0.0000000000
   39        1.7579064800
   40        0.0069089600
   41       -0.0000000000
   42        0.0000000000
   43        0.0000000000
   44        0.0125719400
   45        0.0000494100
   46        0.0000000000
 Ene=         -0.05534290
 Spin= Alpha
 Occup=        0.00000000
    1       -0.0134515000
    2       -0.0229067000
    3       -0.1120942500
    4        0.0000000000
    5        0.0000000000
    6        0.0726303100
    7       -0.0271465300
    8       -0.0000000000
    9        0.0000000000
   10        0.3066824200
   11       -0.5654214000
   12        0.0000000000
   13        0.0000000000
   14       -0.6321175400
   15        1.3456452900
   16        0.0000000000
   17        0.0000000000
   18       -0.0280083000
   19        0.0018383700
   20        0.0018383700
   21       -0.0000000000
   22        0.0000000000
   23       -0.0000000000
   24       -0.0134594700
   25       -0.0229118900
   26        0.1120991600
   27       -0.0000000000
   28        0.0000000000
   29        0.0728113200
   30        0.0271172500
   31       -0.0000000000
   32       -0.0000000000
   33        0.3053076100
   34        0.5659769800
   35        0.0000000000
   36        0.0000000000
   37       -0.6161195500
   38       -1.3515119100
   39       -0.0000000000
   40       -0.0000000000
   41       -0.0279984900
   42        0.0018771000
   43        0.0018771000
   44        0.0000000000
   45       -0.0000000000
   46        0.0000000000
 Ene=         -0.03779310
 Spin= Alpha
 Occup=        0.00000000
    1       -0.0257774600
    2       -0.0503588400
    3       -0.0374564700
    4        0.0000000000
    5        0.0000000000
    6       -0.0289534400
    7        0.0660785100
    8       -0.0000000000
    9        0.0000000000
   10        1.6944129300
   11       -0.2851501900
   12        0.0000000000
   13        0.0000000000
   14      -19.3733633700
   15       -5.9278136500
   16       -0.0000000000
   17       -0.0000000000
   18       -0.0274675500
   19       -0.0491400700
   20       -0.0491400700
   21       -0.0000000000
   22       -0.0000000000
   23       -0.0000000000
   24        0.0257819500
   25        0.0503668800
   26       -0.0374750000
   27       -0.0000000000
   28       -0.0000000000
   29        0.0289328900
   30        0.0660914900
   31       -0.0000000000
   32       -0.0000000000
   33       -1.6945608900
   34       -0.2852851900
   35       -0.0000000000
   36       -0.0000000000
   37       19.3735809900
   38       -5.9275720500
   39        0.0000000000
   40        0.0000000000
   41        0.0274744600
   42        0.0491425800
   43        0.0491425800
   44       -0.0000000000
   45        0.0000000000
   46       -0.0000000000
 Ene=         -0.01751960
 Spin= Alpha
 Occup=        0.00000000
    1        0.0000000000
    2        0.0000000000
    3        0.0000000000
    4       -0.0029857400
    5        0.1944378600
    6        0.0000000000
    7        0.0000000000
    8       -0.0025666200
    9        0.1671438300
   10       -0.0000000000
   11        0.0000000000
   12       -0.0153694600
   13        1.0008931000
   14        0.0000000000
   15        0.0000000000
   16        0.0191704400
   17       -1.2484216200
   18        0.0000000000
   19        0.0000000000
   20        0.0000000000
   21        0.0001480100
   22       -0.0096388900
   23       -0.0000000000
   24       -0.0000000000
   25       -0.0000000000
   26        0.0000000000
   27        0.0029858600
   28       -0.1944460800
   29       -0.0000000000
   30       -0.0000000000
   31        0.0025668600
   32       -0.1671599400
   33        0.0000000000
   34        0.0000000000
   35        0.0153697500
   36       -1.0009119300
   37       -0.0000000000
   38        0.0000000000
   39       -0.0191710600
   40        1.2484618600
   41        0.0000000000
   42       -0.0000000000
   43       -0.0000000000
   44        0.0001479900
   45       -0.0096376700
   46       -0.0000000000
 Ene=         -0.01751960
 Spin= Alpha
 Occup=        0.00000000
    1       -0.0000000000
    2       -0.0000000000
    3       -0.0000000000
    4       -0.1944378600
    5       -0.0029857400
    6       -0.0000000000
    7        0.0000000000
    8       -0.1671438300
    9       -0.0025666200
   10        0.0000000000
   11       -0.0000000000
   12       -1.0008931000
   13       -0.0153694600
   14       -0.0000000000
   15       -0.0000000000
   16        1.2484216200
   17        0.0191704400
   18        0.0000000000
   19       -0.0000000000
   20        0.0000000000
   21        0.0096388900
   22        0.0001480100
   23       -0.0000000000
   24        0.0000000000
   25        0.0000000000
   26       -0.0000000000
   27        0.1944460800
   28        0.0029858600
   29       -0.0000000000
   30        0.0000000000
   31        0.1671599400
   32        0.0025668600
   33       -0.0000000000
   34       -0.0000000000
   35        1.0009119300
   36        0.0153697500
   37        0.0000000000
   38       -0.0000000000
   39       -1.2484618600
   40       -0.0191710600
   41       -0.0000000000
   42        0.0000000000
   43        0.0000000000
   44        0.0096376700
   45        0.0001479900
   46        0.0000000000
 Ene=          0.07501940
 Spin= Alpha
 Occup=        0.00000000
    1       -0.0447192200
    2       -0.0769115800
    3        0.1358655700
    4       -0.0000000000
    5        0.0000000000
    6        0.1306705200
    7        0.0675663200
    8       -0.0000000000
    9       -0.0000000000
   10        3.1995404500
   11        2.6242019400
   12        0.0000000000
   13        0.0000000000
   14       -3.1533747700
   15       -1.4611910300
   16        0.0000000000
   17       -0.0000000000
   18       -0.0624727400
   19       -0.0105374500
   20       -0.0105374500
   21        0.0000000000
   22        0.0000000000
   23       -0.0000000000
   24        0.0447177100
   25        0.0769096100
   26        0.1358723500
   27        0.0000000000
   28       -0.0000000000
   29       -0.1306652700
   30        0.0676159500
   31       -0.0000000000
   32        0.0000000000
   33       -3.1995583300
   34        2.6241184800
   35        0.0000000000
   36       -0.0000000000
   37        3.1533844700
   38       -1.4611470300
   39       -0.0000000000
   40        0.0000000000
   41        0.0624743200
   42        0.0105382400
   43        0.0105382400
   44       -0.0000000000
   45       -0.0000000000
   46       -0.0000000000
 Ene=          0.14196400
 Spin= Alpha
 Occup=        0.00000000
    1        0.0337165000
    2        0.0304057000
    3       -0.0766785300
    4       -0.0000000000
    5       -0.0000000000
    6       -0.8217033600
    7       -0.5868729600
    8       -0.0000000000
    9       -0.0000000000
   10        1.0958210800
   11        1.2456664000
   12        0.0000000000
   13        0.0000000000
   14       -0.2695256200
   15       -0.8509871100
   16       -0.0000000000
   17       -0.0000000000
   18       -0.1551869500
   19       -0.0815637400
   20       -0.0815637400
   21       -0.0000000000
   22       -0.0000000000
   23        0.0000000000
   24        0.0337136000
   25        0.0304008600
   26        0.0766673700
   27       -0.0000000000
   28       -0.0000000000
   29       -0.8216857600
   30        0.5868438000
   31       -0.0000000000
   32       -0.0000000000
   33        1.0959147500
   34       -1.2457119700
   35        0.0000000000
   36        0.0000000000
   37       -0.2701262200
   38        0.8511962200
   39        0.0000000000
   40       -0.0000000000
   41       -0.1551920000
   42       -0.0815623400
   43       -0.0815623400
   44        0.0000000000
   45        0.0000000000
   46        0.0000000000
 Ene=          0.15641700
 Spin= Alpha
 Occup=        0.00000000
    1       -0.0000000000
    2       -0.0000000000
    3       -0.0000000000
    4       -0.0003898600
    5       -0.1547543100
    6        0.0000000000
    7       -0.0000000000
    8       -0.0021527700
    9       -0.8545453900
   10       -0.0000000000
   11        0.0000000000
   12        0.0029215600
   13        1.1597194300
   14        0.0000000000
   15        0.0000000000
   16       -0.0011234500
   17       -0.4459570200
   18        0.0000000000
   19        0.0000000000
   20        0.0000000000
   21       -0.0001260300
   22       -0.0500267900
   23       -0.0000000000
   24       -0.0000000000
   25       -0.0000000000
   26        0.0000000000
   27       -0.0003898100
   28       -0.1547354500
   29        0.0000000000
   30       -0.0000000000
   31       -0.0021525500
   32       -0.8544569600
   33       -0.0000000000
   34        0.0000000000
   35        0.0029211700
   36        1.1595644100
   37       -0.0000000000
   38        0.0000000000
   39       -0.0011232700
   40       -0.4458831300
   41        0.0000000000
   42        0.0000000000
   43        0.0000000000
   44        0.0001260300
   45        0.0500283800
   46        0.0000000000
 Ene=          0.15641700
 Spin= Alpha
 Occup=        0.00000000
    1        0.0000000000
    2        0.0000000000
    3        0.0000000000
    4        0.1547543100
    5       -0.0003898600
    6       -0.0000000000
    7       -0.0000000000
    8        0.8545453900
    9       -0.0021527700
   10        0.0000000000
   11        0.0000000000
   12       -1.1597194300
   13        0.0029215600
   14       -0.0000000000
   15       -0.0000000000
   16        0.4459570200
   17       -0.0011234500
   18       -0.0000000000
   19       -0.0000000000
   20       -0.0000000000
   21        0.0500267900
   22       -0.0001260300
   23        0.0000000000
   24        0.0000000000
   25        0.0000000000
   26        0.0000000000
   27        0.1547354500
   28       -0.0003898100
   29       -0.0000000000
   30        0.0000000000
   31        0.8544569600
   32       -0.0021525500
   33        0.0000000000
   34       -0.0000000000
   35       -1.1595644100
   36        0.0029211700
   37       -0.0000000000
   38        0.0000000000
   39        0.4458831300
   40       -0.0011232700
   41       -0.0000000000
   42       -0.0000000000
   43       -0.0000000000
   44       -0.0500283800
   45        0.0001260300
   46        0.0000000000
 Ene=          0.17725600
 Spin= Alpha
 Occup=        0.00000000
    1        0.0686454500
    2        0.0816086400
    3        0.0982276800
    4       -0.0000000000
    5       -0.0000000000
    6       -1.0846370300
    7        0.4417600800
    8       -0.0000000000
    9       -0.0000000000
   10        1.8760126700
   11       -0.7822320600
   12        0.0000000000
   13        0.0000000000
   14       -0.7183598500
   15        0.2794626400
   16       -0.0000000000
   17       -0.0000000000
   18       -0.1385831700
   19       -0.1204185300
   20       -0.1204185300
   21       -0.0000000000
   22       -0.0000000000
   23        0.0000000000
   24        0.0686442400
   25        0.0816092400
   26       -0.0982013500
   27       -0.0000000000
   28        0.0000000000
   29       -1.0845779400
   30       -0.4416580200
   31       -0.0000000000
   32        0.0000000000
   33        1.8757422000
   34        0.7822232800
   35       -0.0000000000
   36       -0.0000000000
   37       -0.7174759100
   38       -0.2797268800
   39        0.0000000000
   40        0.0000000000
   41       -0.1385668700
   42       -0.1204112500
   43       -0.1204112500
   44        0.0000000000
   45        0.0000000000
   46        0.0000000000
 Ene=          0.19079100
 Spin= Alpha
 Occup=        0.00000000
    1       -0.0000000000
    2       -0.0000000000