[Molden Format]
[Atoms] AU
E+       1       4     0.00000000     0.00000000     0.00000000
E+       2       4     4.54000000     0.00000000     0.00000000
[GTO]
  1 0
s  1 1.00
   1.0000000000E-04   1.0000000000E+00
s  1 1.00
   3.0000000000E-04   1.0000000000E+00
s  1 1.00
   9.0000000000E-04   1.0000000000E+00
s  1 1.00
   2.7000000000E-03   1.0000000000E+00
s  1 1.00
   8.1000000000E-03   1.0000000000E+00
s  1 1.00
   2.4300000000E-02   1.0000000000E+00
s  1 1.00
   7.2900000000E-02   1.0000000000E+00
s  1 1.00
   2.1870000000E-01   1.0000000000E+00
s  1 1.00
   6.5610000000E-01   1.0000000000E+00
s  1 1.00
   1.9683000000E+00   1.0000000000E+00
p  1 1.00
   1.0000000000E-04   1.0000000000E+00
p  1 1.00
   3.0000000000E-04   1.0000000000E+00
p  1 1.00
   9.0000000000E-04   1.0000000000E+00
p  1 1.00
   2.7000000000E-03   1.0000000000E+00
d  1 1.00
   1.0000000000E-04   1.0000000000E+00
d  1 1.00
   3.0000000000E-04   1.0000000000E+00
 
  2 0
s  1 1.00
   1.0000000000E-04   1.0000000000E+00
s  1 1.00
   3.0000000000E-04   1.0000000000E+00
s  1 1.00
   9.0000000000E-04   1.0000000000E+00
s  1 1.00
   2.7000000000E-03   1.0000000000E+00
s  1 1.00
   8.1000000000E-03   1.0000000000E+00
s  1 1.00
   2.4300000000E-02   1.0000000000E+00
s  1 1.00
   7.2900000000E-02   1.0000000000E+00
s  1 1.00
   2.1870000000E-01   1.0000000000E+00
s  1 1.00
   6.5610000000E-01   1.0000000000E+00
s  1 1.00
   1.9683000000E+00   1.0000000000E+00
p  1 1.00
   1.0000000000E-04   1.0000000000E+00
p  1 1.00
   3.0000000000E-04   1.0000000000E+00
p  1 1.00
   9.0000000000E-04   1.0000000000E+00
p  1 1.00
   2.7000000000E-03   1.0000000000E+00
d  1 1.00
   1.0000000000E-04   1.0000000000E+00
d  1 1.00
   3.0000000000E-04   1.0000000000E+00
 
 
[MO]
Ene=    -4.68424E-02
Spin= Alpha
Occup=   1.0000000000
   1      -0.02853873
   2      -0.02535672
   3       1.43411693
   4      17.53277969
   5       0.05989185
   6       1.32655898
   7      -0.22980357
   8      -0.09544950
   9       0.00684296
  10      -0.00394441
  11       0.00326799
  12       0.00000000
  13      -0.00000000
  14      -0.00140551
  15       0.00000000
  16      -0.00000000
  17       0.08550957
  18      -0.00000000
  19       0.00000000
  20       2.08956459
  21       0.00000000
  22      -0.00000000
  23       0.01822498
  24       0.05848107
  25       0.05848107
  26       0.00000000
  27      -0.00000000
  28      -0.00000000
  29       0.09895921
  30       0.04489956
  31       0.04489956
  32       0.00000000
  33      -0.00000000
  34       0.00000000
  35      -0.02831526
  36      -0.02518262
  37      -1.34712768
  38     -17.63369773
  39       0.41827113
  40      -0.66902610
  41       0.03653474
  42      -0.04334025
  43      -0.00015226
  44      -0.00101323
  45       0.00614781
  46      -0.00000000
  47       0.00000000
  48       0.00445824
  49      -0.00000000
  50       0.00000000
  51       0.07312802
  52       0.00000000
  53      -0.00000000
  54       2.09022654
  55      -0.00000000
  56       0.00000000
  57      -0.01045893
  58      -0.05007118
  59      -0.05007118
  60       0.00000000
  61      -0.00000000
  62       0.00000000
  63      -0.07152136
  64      -0.01836865
  65      -0.01836865
  66       0.00000000
  67      -0.00000000
  68      -0.00000000
Ene=    -4.26458E-02
Spin= Alpha
Occup=   0.0000000000
   1       0.20054175
   2       0.26176604
   3       2.15652892
   4      32.46270421
   5      -1.46521772
   6      -0.59143204
   7       0.17790858
   8      -0.03503840
   9       0.00820562
  10      -0.00130728
  11       0.00185408
  12       0.00000000
  13      -0.00000000
  14       0.02248545
  15       0.00000000
  16      -0.00000000
  17       1.15698433
  18       0.00000000
  19      -0.00000000
  20       2.84538713
  21      -0.00000000
  22       0.00000000
  23      -0.15509002
  24      -0.06368157
  25      -0.06368157
  26       0.00000000
  27      -0.00000000
  28      -0.00000000
  29      -0.15751574
  30      -0.31128525
  31      -0.31128525
  32       0.00000000
  33      -0.00000000
  34       0.00000000
  35       0.20008046
  36       0.26112369
  37      -2.94519205
  38     -32.18603615
  39       2.37544625
  40       0.24271394
  41      -0.09398990
  42      -0.01517849
  43      -0.00626235
  44      -0.00028391
  45      -0.01926388
  46      -0.00000000
  47       0.00000000
  48      -0.03015018
  49      -0.00000000
  50       0.00000000
  51      -0.80530595
  52      -0.00000000
  53       0.00000000
  54       4.78084585
  55       0.00000000
  56      -0.00000000
  57       0.07369472
  58       0.01933046
  59       0.01933046
  60       0.00000000
  61      -0.00000000
  62       0.00000000
  63       0.02038760
  64       0.06106184
  65       0.06106184
  66       0.00000000
  67      -0.00000000
  68      -0.00000000
Ene=    -4.67253E-03
Spin= Alpha
Occup=   0.0000000000
   1      -0.32895224
   2      -0.28222992
   3      -6.99056255
   4     -93.48252079
   5       0.24042821
   6      -0.73542603
   7       0.14558796
   8      -0.04279446
   9       0.00686631
  10      -0.00146066
  11      -0.15200621
  12      -0.00000000
  13       0.00000000
  14      -0.07326516
  15      -0.00000000
  16       0.00000000
  17      -0.49001778
  18      -0.00000000
  19       0.00000000
  20      -9.87166660
  21       0.00000000
  22      -0.00000000
  23      -1.05991941
  24      -1.09688186
  25      -1.09688186
  26      -0.00000000
  27      -0.00000000
  28       0.00000000
  29      -1.68901445
  30      -1.63500341
  31      -1.63500341
  32      -0.00000000
  33       0.00000000
  34       0.00000000
  35      -0.33574533
  36      -0.28822042
  37       7.77110791
  38      92.31443310
  39       0.00576536
  40       1.06190893
  41      -0.25263199
  42       0.01224284
  43      -0.01523469
  44       0.00105990
  45      -0.11767972
  46       0.00000000
  47      -0.00000000
  48      -0.00931119
  49       0.00000000
  50      -0.00000000
  51      -0.17537146
  52       0.00000000
  53      -0.00000000
  54     -13.06518664
  55      -0.00000000
  56       0.00000000
  57       1.16978916
  58       1.18816053
  59       1.18816053
  60      -0.00000000
  61       0.00000000
  62      -0.00000000
  63       1.95431042
  64       1.95938461
  65       1.95938461
  66      -0.00000000
  67      -0.00000000
  68      -0.00000000
Ene=    -2.62130E-03
Spin= Alpha
Occup=   0.0000000000
   1       0.00000000
   2       0.00000000
   3       0.00000000
   4       0.00000001
   5      -0.00000000
   6       0.00000000
   7      -0.00000000
   8       0.00000000
   9      -0.00000000
  10       0.00000000
  11       0.00000000
  12       0.04748100
  13       0.01952274
  14       0.00000000
  15      -0.16200928
  16      -0.06661330
  17       0.00000000
  18      -0.39871263
  19      -0.16393853
  20       0.00000000
  21       1.18792603
  22       0.48843912
  23       0.00000000
  24       0.00000000
  25       0.00000000
  26       0.66573006
  27       0.27372799
  28       0.00000000
  29       0.00000000
  30       0.00000000
  31       0.00000000
  32      -0.26607928
  33      -0.10940372
  34      -0.00000000
  35       0.00000000
  36       0.00000000
  37      -0.00000000
  38      -0.00000001
  39       0.00000000
  40      -0.00000000
  41       0.00000000
  42      -0.00000000
  43       0.00000000
  44      -0.00000000
  45       0.00000000
  46       0.04802957
  47       0.01974830
  48       0.00000000
  49      -0.16429566
  50      -0.06755339
  51       0.00000000
  52       0.79824991
  53       0.32821613
  54       0.00000000
  55      -2.21898565
  56      -0.91237953
  57      -0.00000000
  58      -0.00000000
  59      -0.00000000
  60      -0.63795935
  61      -0.26230952
  62      -0.00000000
  63      -0.00000000
  64      -0.00000000
  65      -0.00000000
  66       0.18905566
  67       0.07773395
  68       0.00000000
Ene=    -2.62130E-03
Spin= Alpha
Occup=   0.0000000000
   1       0.00000000
   2       0.00000000
   3       0.00000001
   4       0.00000008
   5      -0.00000000
   6       0.00000000
   7      -0.00000000
   8       0.00000000
   9      -0.00000000
  10       0.00000000
  11       0.00000000
  12       0.01952274
  13      -0.04748100
  14       0.00000000
  15      -0.06661330
  16       0.16200928
  17       0.00000000
  18      -0.16393853
  19       0.39871263
  20       0.00000001
  21       0.48843912
  22      -1.18792603
  23       0.00000000
  24       0.00000000
  25       0.00000000
  26       0.27372799
  27      -0.66573006
  28       0.00000000
  29       0.00000000
  30       0.00000000
  31       0.00000000
  32      -0.10940372
  33       0.26607928
  34      -0.00000000
  35       0.00000000
  36       0.00000000
  37      -0.00000001
  38      -0.00000008
  39       0.00000000
  40      -0.00000000
  41       0.00000000
  42      -0.00000000
  43       0.00000000
  44      -0.00000000
  45       0.00000000
  46       0.01974830
  47      -0.04802957
  48       0.00000000
  49      -0.06755339
  50       0.16429566
  51       0.00000000
  52       0.32821613
  53      -0.79824991
  54       0.00000001
  55      -0.91237953
  56       2.21898565
  57      -0.00000000
  58      -0.00000000
  59      -0.00000000
  60      -0.26230952
  61       0.63795935
  62      -0.00000000
  63      -0.00000000
  64      -0.00000000
  65      -0.00000000
  66       0.07773395
  67      -0.18905566
  68       0.00000000
Ene=    -3.34994E-04
Spin= Alpha
Occup=   0.0000000000
   1       0.09684426
   2       0.03589129
   3       1.64962606
   4      23.73565851
   5      -0.09706808
   6       0.19768584
   7      -0.03710360
   8       0.00986002
   9      -0.00162105
  10       0.00033160
  11      -0.10235365
  12       0.00000000
  13      -0.00000000
  14      -0.24187208
  15       0.00000000
  16      -0.00000000
  17       0.69718659
  18       0.00000000
  19      -0.00000000
  20       2.38104525
  21      -0.00000000
  22      -0.00000000
  23       0.36977074
  24       0.36680961
  25       0.36680961
  26       0.00000000
  27      -0.00000000
  28      -0.00000000
  29       0.90288267
  30      -0.34324980
  31      -0.34324980
  32       0.00000000
  33      -0.00000000
  34      -0.00000000
  35       0.09208865
  36       0.01730427
  37      -2.08247168
  38     -23.32421288
  39       0.05024071
  40      -0.28121268
  41       0.06336277
  42      -0.00323465
  43       0.00374004
  44      -0.00026363
  45      -0.11986547
  46      -0.00000000
  47       0.00000000
  48      -0.27842854
  49      -0.00000000
  50       0.00000000
  51      -0.58198162
  52      -0.00000000
  53       0.00000000
  54       3.49353974
  55      -0.00000000
  56       0.00000000
  57      -0.60133188
  58      -0.42836100
  59      -0.42836100
  60       0.00000000
  61       0.00000000
  62       0.00000000
  63      -1.35772257
  64       0.18766458
  65       0.18766458
  66       0.00000000
  67       0.00000000
  68       0.00000000
Ene=     4.26687E-05
Spin= Alpha
Occup=   0.0000000000
   1       0.00000000
   2      -0.00000000
   3       0.00000000
   4       0.00000000
   5      -0.00000000
   6       0.00000000
   7      -0.00000000
   8      -0.00000000
   9      -0.00000000
  10      -0.00000000
  11       0.00000000
  12      -0.18519758
  13      -0.37583763
  14       0.00000000
  15      -0.01755149
  16      -0.03561878
  17      -0.00000000
  18       0.12307596
  19       0.24976880
  20       0.00000000
  21      -0.03219468
  22      -0.06533547
  23       0.00000000
  24       0.00000000
  25       0.00000000
  26       1.53149793
  27       3.10800260
  28       0.00000000
  29       0.00000000
  30       0.00000000
  31       0.00000000
  32       0.36476029
  33       0.74023994
  34      -0.00000000
  35       0.00000000
  36      -0.00000000
  37      -0.00000000
  38      -0.00000000
  39       0.00000000
  40      -0.00000000
  41       0.00000000
  42      -0.00000000
  43       0.00000000
  44      -0.00000000
  45       0.00000000
  46      -0.19061906
  47      -0.38683992
  48       0.00000000
  49      -0.01940792
  50      -0.03938620
  51       0.00000000
  52      -0.16210089
  53      -0.32896551
  54       0.00000000
  55       0.08591829
  56       0.17436149
  57      -0.00000000
  58      -0.00000000
  59      -0.00000000
  60      -1.77083269
  61      -3.59370554
  62      -0.00000000
  63      -0.00000000
  64      -0.00000000
  65      -0.00000000
  66      -0.40873654
  67      -0.82948478
  68       0.00000000
Ene=     4.26687E-05
Spin= Alpha
Occup=   0.0000000000
   1       0.00000000
   2      -0.00000000
   3       0.00000000
   4       0.00000000
   5      -0.00000000
   6       0.00000000
   7      -0.00000000
   8      -0.00000000
   9      -0.00000000
  10      -0.00000000
  11       0.00000000
  12       0.37583763
  13      -0.18519758
  14       0.00000000
  15       0.03561878
  16      -0.01755149
  17       0.00000000
  18      -0.24976880
  19       0.12307596
  20       0.00000000
  21       0.06533547
  22      -0.03219468
  23       0.00000000
  24       0.00000000
  25       0.00000000
  26      -3.10800260
  27       1.53149793
  28       0.00000000
  29       0.00000000
  30       0.00000000
  31       0.00000000
  32      -0.74023994
  33       0.36476029
  34      -0.00000000
  35       0.00000000
  36      -0.00000000
  37      -0.00000000
  38      -0.00000000
  39       0.00000000
  40      -0.00000000
  41       0.00000000
  42      -0.00000000
  43       0.00000000
  44      -0.00000000
  45       0.00000000
  46       0.38683992
  47      -0.19061906
  48       0.00000000
  49       0.03938620
  50      -0.01940792
  51       0.00000000
  52       0.32896551
  53      -0.16210089
  54       0.00000000
  55      -0.17436149
  56       0.08591829
  57      -0.00000000
  58      -0.00000000
  59      -0.00000000
  60       3.59370554
  61      -1.77083269
  62      -0.00000000
  63      -0.00000000
  64      -0.00000000
  65      -0.00000000
  66       0.82948478
  67      -0.40873654
  68       0.00000000
Ene=     6.62133E-05
Spin= Alpha
Occup=   0.0000000000
   1      -1.24434677
   2       0.35610316
   3       1.03413130
   4      13.83209871
   5      -0.06187494
   6       0.11785775
   7      -0.02185426
   8       0.00569398
   9      -0.00093782
  10       0.00019055
  11      -0.16164191
  12       0.00000000
  13      -0.00000000
  14       0.07227237
  15       0.00000000
  16      -0.00000000
  17       0.37369432
  18       0.00000000
  19       0.00000000
  20       1.38532865
  21      -0.00000000
  22      -0.00000000
  23      -9.76324765
  24      -7.66762513
  25      -7.66762512
  26       0.00000000
  27       0.00000000
  28       0.00000000
  29      -1.19977303
  30      -1.89066369
  31      -1.89066369
  32       0.00000000
  33       0.00000000
  34      -0.00000000
  35      -1.25428463
  36       0.35744459
  37      -1.01340861
  38     -13.62617898
  39       0.04349933
  40      -0.16945184
  41       0.03806674
  42      -0.00211196
  43       0.00224923
  44      -0.00016398
  45      -0.00607617
  46      -0.00000000
  47       0.00000000
  48       0.02008135
  49      -0.00000000
  50       0.00000000
  51      -0.23594373
  52      -0.00000000
  53      -0.00000000
  54       2.03428803
  55       0.00000000
  56       0.00000000
  57      10.83857831
  58       8.32038701
  59       8.32038701
  60       0.00000000
  61      -0.00000000
  62      -0.00000000
  63       1.25496404
  64       2.24787167
  65       2.24787167
  66       0.00000000
  67      -0.00000000
  68       0.00000000
Ene=     1.69711E-04
Spin= Alpha
Occup=   0.0000000000
   1      -1.06020574
   2       0.34709138
   3      -0.27662888
   4      -4.93440104
   5       0.04025655
   6      -0.02847970
   7       0.00533059
   8      -0.00047827
   9       0.00019335
  10      -0.00002032
  11      -0.22077725
  12      -0.00000000
  13       0.00000000
  14      -0.06368050
  15      -0.00000000
  16       0.00000000
  17       0.02879218
  18       0.00000000
  19      -0.00000000
  20      -0.53483187
  21       0.00000000
  22      -0.00000000
  23       6.09038460
  24      -1.16674369
  25      -1.16674369
  26      -0.00000000
  27       0.00000000
  28      -0.00000000
  29       1.05810686
  30       0.38331984
  31       0.38331984
  32       0.00000000
  33      -0.00000000
  34      -0.00000000
  35      -1.06439595
  36       0.34261921
  37       0.46264350
  38       4.85907301
  39      -0.02811596
  40       0.02091499
  41      -0.00332188
  42       0.00031288
  43      -0.00016950
  44       0.00001460
  45      -0.12284455
  46       0.00000000
  47      -0.00000000
  48      -0.08935598
  49       0.00000000
  50      -0.00000000
  51      -0.08247308
  52      -0.00000000
  53       0.00000000
  54      -0.64931580
  55      -0.00000000
  56       0.00000000
  57      -6.04752006
  58       2.19136484
  59       2.19136484
  60       0.00000000
  61      -0.00000000
  62       0.00000000
  63      -0.64910271
  64      -0.06157754
  65      -0.06157754
  66      -0.00000000
  67       0.00000000
  68       0.00000000
Ene=     2.65245E-04
Spin= Alpha
Occup=   0.0000000000
   1      -0.00000000
   2       0.00000000
   3       0.00000000
   4       0.00000001
   5      -0.00000000
   6       0.00000000
   7      -0.00000000
   8       0.00000000
   9      -0.00000000
  10       0.00000000
  11       0.00000000
  12       0.00000000
  13      -0.00000000
  14      -0.00000000
  15      -0.00000000
  16      -0.00000000
  17       0.00000000
  18      -0.00000000
  19      -0.00000000
  20       0.00000000
  21      -0.00000000
  22      -0.00000000
  23       0.00000001
  24       9.51147900
  25      -9.51147897
  26       0.00000000
  27       0.00000000
  28       0.00000039
  29       0.00000000
  30       0.13124193
  31      -0.13124192
  32      -0.00000000
  33      -0.00000000
  34       0.00000001
  35      -0.00000000
  36       0.00000000
  37      -0.00000000
  38      -0.00000001
  39       0.00000000
  40      -0.00000000
  41       0.00000000
  42      -0.00000000
  43       0.00000000
  44      -0.00000000
  45       0.00000000
  46      -0.00000000
  47       0.00000000
  48      -0.00000000
  49       0.00000000
  50       0.00000000
  51      -0.00000000
  52       0.00000000
  53       0.00000000
  54       0.00000000
  55       0.00000000
  56       0.00000000
  57      -0.00000001
  58     -10.30809950
  59      10.30809948
  60      -0.00000000
  61      -0.00000000
  62      -0.00000042
  63      -0.00000000
  64      -0.02687925
  65       0.02687924
  66       0.00000000
  67       0.00000000
  68      -0.00000000
Ene=     2.65246E-04
Spin= Alpha
Occup=   0.0000000000
   1       0.00000000
   2       0.00000000
   3      -0.00000000
   4      -0.00000000
   5       0.00000000
   6      -0.00000000
   7       0.00000000
   8       0.00000000
   9       0.00000000
  10       0.00000000
  11      -0.00000000
  12      -0.00000000
  13      -0.00000000
  14       0.00000000
  15      -0.00000000
  16       0.00000000
  17      -0.00000000
  18      -0.00000000
  19       0.00000000
  20      -0.00000000
  21      -0.00000000
  22       0.00000000
  23      -0.00000000
  24       0.00000034
  25      -0.00000034
  26       0.00000000
  27      -0.00000000
  28     -10.98305910
  29       0.00000000
  30       0.00000000
  31      -0.00000000
  32      -0.00000000
  33       0.00000000
  34      -0.15140098
  35      -0.00000000
  36      -0.00000000
  37       0.00000000
  38       0.00000000
  39      -0.00000000
  40       0.00000000
  41      -0.00000000
  42       0.00000000
  43      -0.00000000
  44       0.00000000
  45       0.00000000
  46      -0.00000000
  47       0.00000000
  48      -0.00000000
  49       0.00000000
  50      -0.00000000
  51      -0.00000000
  52       0.00000000
  53      -0.00000000
  54      -0.00000000
  55       0.00000000
  56      -0.00000000
  57       0.00000000
  58      -0.00000036
  59       0.00000036
  60      -0.00000000
  61       0.00000000
  62      11.90293648
  63      -0.00000000
  64      -0.00000000
  65       0.00000000
  66       0.00000000
  67      -0.00000000
  68       0.03085545
Ene=     3.05971E-04
Spin= Alpha
Occup=   0.0000000000
   1      -0.97433409
   2       0.28350368
   3       0.81969520
   4       8.42748008
   5      -0.01351771
   6       0.03415780
   7      -0.00609378
   8       0.00138319
   9      -0.00023283
  10       0.00004465
  11       0.74298944
  12       0.00000000
  13      -0.00000000
  14      -0.49709722
  15       0.00000000
  16      -0.00000000
  17      -0.02491713
  18      -0.00000000
  19       0.00000000
  20       0.94372714
  21      -0.00000000
  22       0.00000000
  23       9.12673575
  24      20.36513201
  25      20.36513202
  26       0.00000000
  27      -0.00000000
  28      -0.00000000
  29       3.81316700
  30       3.54963255
  31       3.54963255
  32      -0.00000000
  33       0.00000000
  34       0.00000000
  35      -0.93256593
  36       0.24983073
  37      -0.70998131
  38      -8.37125980
  39       0.01225588
  40      -0.04857068
  41       0.01071660
  42      -0.00061746
  43       0.00062830
  44      -0.00004607
  45       0.87123183
  46      -0.00000000
  47       0.00000000
  48      -0.52853681
  49      -0.00000000
  50       0.00000000
  51      -0.06274385
  52       0.00000000
  53      -0.00000000
  54       1.14389007
  55       0.00000000
  56      -0.00000000
  57      -8.06295247
  58     -20.01722234
  59     -20.01722234
  60      -0.00000000
  61       0.00000000
  62       0.00000000
  63      -3.66664551
  64      -3.25384323
  65      -3.25384323
  66       0.00000000
  67      -0.00000000
  68      -0.00000000
Ene=     3.70240E-04
Spin= Alpha
Occup=   0.0000000000
   1      -0.00000000
   2       0.00000000
   3       0.00000000
   4       0.00000000
   5      -0.00000000
   6       0.00000000
   7      -0.00000000
   8      -0.00000000
   9       0.00000000
  10      -0.00000000
  11      -0.00000000
  12      -0.01441210
  13      -0.01820843
  14       0.00000000
  15       0.01385814
  16       0.01750855
  17      -0.00000000
  18      -0.09725851
  19      -0.12287764
  20       0.00000000
  21       0.00089320
  22       0.00112848
  23       0.00000000
  24      -0.00000000
  25      -0.00000000
  26      -6.87305906
  27      -8.68351053
  28       0.00000000
  29       0.00000000
  30       0.00000000
  31       0.00000000
  32       0.75384994
  33       0.95242363
  34      -0.00000000
  35      -0.00000000
  36       0.00000000
  37      -0.00000000
  38      -0.00000000
  39       0.00000000
  40      -0.00000000
  41       0.00000000
  42      -0.00000000
  43       0.00000000
  44      -0.00000000
  45      -0.00000000
  46      -0.00480274
  47      -0.00606784
  48       0.00000000
  49       0.00309537
  50       0.00391073
  51       0.00000000
  52       0.01021314
  53       0.01290341
  54       0.00000000
  55       0.08657352
  56       0.10937809
  57      -0.00000000
  58       0.00000000
  59       0.00000000
  60       7.29650891
  61       9.21850249
  62      -0.00000000
  63      -0.00000000
  64      -0.00000000
  65      -0.00000000
  66      -1.02798187
  67      -1.29876542
  68       0.00000000
Ene=     3.70240E-04
Spin= Alpha
Occup=   0.0000000000
   1      -0.00000000
   2       0.00000000
   3       0.00000000
   4       0.00000000
   5      -0.00000000
   6       0.00000000
   7      -0.00000000
   8      -0.00000000
   9      -0.00000000
  10      -0.00000000
  11      -0.00000000
  12       0.01820843
  13      -0.01441210
  14       0.00000000
  15      -0.01750855
  16       0.01385814
  17       0.00000000
  18       0.12287764
  19      -0.09725851
  20       0.00000000
  21      -0.00112848
  22       0.00089320
  23       0.00000000
  24      -0.00000000
  25      -0.00000000
  26       8.68351053
  27      -6.87305906
  28       0.00000000
  29       0.00000000
  30       0.00000000
  31       0.00000000
  32      -0.95242363
  33       0.75384994
  34      -0.00000000
  35      -0.00000000
  36       0.00000000
  37      -0.00000000
  38      -0.00000000
  39       0.00000000
  40      -0.00000000
  41       0.00000000
  42      -0.00000000
  43       0.00000000
  44      -0.00000000
  45      -0.00000000
  46       0.00606784
  47      -0.00480274
  48       0.00000000
  49      -0.00391073
  50       0.00309537
  51       0.00000000
  52      -0.01290341
  53       0.01021314
  54       0.00000000
  55      -0.10937809
  56       0.08657352
  57      -0.00000000
  58       0.00000000
  59       0.00000000
  60      -9.21850249
  61       7.29650891
  62      -0.00000000
  63      -0.00000000
  64      -0.00000000
  65      -0.00000000
  66       1.29876542
  67      -1.02798187
  68       0.00000000
Ene=     4.52017E-04
Spin= Alpha
Occup=   0.0000000000
   1       0.00000000
   2      -0.00000000
   3      -0.00000000
   4      -0.00000000
   5       0.00000000
   6      -0.00000000
   7       0.00000000
   8       0.00000000
   9       0.00000000
  10       0.00000000
  11       0.00000000
  12      -0.31814000
  13      -0.53537974
  14      -0.00000000
  15       0.20492738
  16       0.34486066
  17       0.00000000
  18      -0.20513892
  19      -0.34521664
  20      -0.00000000
  21       0.04717533
  22       0.07938869
  23      -0.00000000
  24       0.00000000
  25       0.00000000
  26       4.44097509
  27       7.47346479
  28      -0.00000000
  29      -0.00000000
  30      -0.00000000
  31      -0.00000000
  32      -1.67112563
  33      -2.81224242
  34       0.00000000
  35       0.00000000
  36      -0.00000000
  37       0.00000000
  38       0.00000000
  39      -0.00000000
  40       0.00000000
  41      -0.00000000
  42       0.00000000
  43      -0.00000000
  44       0.00000000
  45      -0.00000000
  46      -0.31308196
  47      -0.52686785
  48      -0.00000000
  49       0.20927036
  50       0.35216920
  51      -0.00000000
  52       0.23859300
  53       0.40151461
  54      -0.00000000
  55      -0.11628158
  56      -0.19568367
  57       0.00000000
  58      -0.00000000
  59      -0.00000000
  60      -4.21734232
  61      -7.09712589
  62       0.00000000
  63       0.00000000
  64       0.00000000
  65       0.00000000
  66       1.77644657
  67       2.98948105
  68      -0.00000000
Ene=     4.52017E-04
Spin= Alpha
Occup=   0.0000000000
   1       0.00000000
   2      -0.00000000
   3      -0.00000000
   4      -0.00000001
   5       0.00000000
   6      -0.00000000
   7       0.00000000
   8       0.00000000
   9       0.00000000
  10       0.00000000
  11      -0.00000000
  12       0.53537974
  13      -0.31814000
  14       0.00000000
  15      -0.34486066
  16       0.20492738
  17      -0.00000000
  18       0.34521664
  19      -0.20513892
  20      -0.00000000
  21      -0.07938869
  22       0.04717533
  23      -0.00000000
  24       0.00000000
  25       0.00000000
  26      -7.47346479
  27       4.44097509
  28      -0.00000000
  29      -0.00000000
  30      -0.00000000
  31      -0.00000000
  32       2.81224242
  33      -1.67112563
  34       0.00000000
  35       0.00000000
  36      -0.00000000
  37       0.00000000
  38       0.00000001
  39      -0.00000000
  40       0.00000000
  41      -0.00000000
  42       0.00000000
  43      -0.00000000
  44       0.00000000
  45      -0.00000000
  46       0.52686785
  47      -0.31308196
  48       0.00000000
  49      -0.35216920
  50       0.20927036
  51      -0.00000000
  52      -0.40151461
  53       0.23859300
  54      -0.00000000
  55       0.19568367
  56      -0.11628158
  57       0.00000000
  58      -0.00000000
  59      -0.00000000
  60       7.09712589
  61      -4.21734232
  62       0.00000000
  63       0.00000000
  64       0.00000000
  65       0.00000000
  66      -2.98948105
  67       1.77644657
  68      -0.00000000
Ene=     4.93614E-04
Spin= Alpha
Occup=   0.0000000000
   1       0.00000001
   2      -0.00000000
   3       0.00000000
   4       0.00000005
   5      -0.00000000
   6       0.00000000
   7      -0.00000000
   8       0.00000000
   9      -0.00000000
  10       0.00000000
  11       0.00000000
  12       0.00000000
  13      -0.00000000
  14      -0.00000000
  15      -0.00000000
  16      -0.00000000
  17       0.00000000
  18      -0.00000000
  19      -0.00000000
  20       0.00000000
  21      -0.00000000
  22       0.00000000
  23       0.00000006
  24      18.17447804
  25     -18.17447801
  26      -0.00000000
  27       0.00000000
  28       0.00000068
  29       0.00000001
  30      -2.09616699
  31       2.09616702
  32       0.00000000
  33      -0.00000000
  34      -0.00000008
  35       0.00000001
  36      -0.00000000
  37      -0.00000001
  38      -0.00000005
  39       0.00000000
  40      -0.00000000
  41       0.00000000
  42      -0.00000000
  43       0.00000000
  44      -0.00000000
  45       0.00000000
  46      -0.00000000
  47       0.00000000
  48      -0.00000000
  49       0.00000000
  50       0.00000000
  51      -0.00000000
  52       0.00000000
  53       0.00000000
  54       0.00000001
  55       0.00000000
  56      -0.00000000
  57      -0.00000006
  58     -17.69060808
  59      17.69060804
  60       0.00000000
  61      -0.00000000
  62      -0.00000067
  63      -0.00000002
  64       2.02931924
  65      -2.02931927
  66      -0.00000000
  67       0.00000000
  68       0.00000008
Ene=     4.93614E-04
Spin= Alpha
Occup=   0.0000000000
   1      -0.00000000
   2       0.00000000
   3      -0.00000000
   4      -0.00000000
   5       0.00000000
   6      -0.00000000
   7       0.00000000
   8      -0.00000000
   9       0.00000000
  10      -0.00000000
  11      -0.00000000
  12      -0.00000000