[Molden Format]
[Atoms] AU
BE       1       4     0.00000000     0.00000000     0.00000000
BE       2       4     4.54000000     0.00000000     0.00000000
[GTO]
  1 0
s  6 1.00
   1.6828000000E+03   2.2857400000E-03
   2.5171500000E+02   1.7593800000E-02
   5.7411600000E+01   8.6331500000E-02
   1.6517100000E+01   2.8183500000E-01
   4.8536400000E+00   6.4059400000E-01
   6.2686300000E-01   1.4446700000E-01
s  3 1.00
   8.3093800000E+00   1.0862100000E-01
   1.7407500000E+00   9.2730100000E-01
   4.8581600000E-01  -2.9716900000E-03
p  3 1.00
   8.3093800000E+00   3.6134400000E-02
   1.7407500000E+00   2.1695800000E-01
   4.8581600000E-01   8.4183900000E-01
s  1 1.00
   1.6361300000E-01   1.0000000000E+00
p  1 1.00
   1.6361300000E-01   1.0000000000E+00
s  1 1.00
   5.6728500000E-02   1.0000000000E+00
p  1 1.00
   5.6728500000E-02   1.0000000000E+00
s  1 1.00
   2.0700000000E-02   1.0000000000E+00
p  1 1.00
   2.0700000000E-02   1.0000000000E+00
d  1 1.00
   2.5500000000E-01   1.0000000000E+00
 
  2 0
s  6 1.00
   1.6828000000E+03   2.2857400000E-03
   2.5171500000E+02   1.7593800000E-02
   5.7411600000E+01   8.6331500000E-02
   1.6517100000E+01   2.8183500000E-01
   4.8536400000E+00   6.4059400000E-01
   6.2686300000E-01   1.4446700000E-01
s  3 1.00
   8.3093800000E+00   1.0862100000E-01
   1.7407500000E+00   9.2730100000E-01
   4.8581600000E-01  -2.9716900000E-03
p  3 1.00
   8.3093800000E+00   3.6134400000E-02
   1.7407500000E+00   2.1695800000E-01
   4.8581600000E-01   8.4183900000E-01
s  1 1.00
   1.6361300000E-01   1.0000000000E+00
p  1 1.00
   1.6361300000E-01   1.0000000000E+00
s  1 1.00
   5.6728500000E-02   1.0000000000E+00
p  1 1.00
   5.6728500000E-02   1.0000000000E+00
s  1 1.00
   2.0700000000E-02   1.0000000000E+00
p  1 1.00
   2.0700000000E-02   1.0000000000E+00
d  1 1.00
   2.5500000000E-01   1.0000000000E+00
 
 
[MO]
Ene=    -4.07605E+00
Spin= Alpha
Occup=   2.0000000000
   1       0.42137005
   2       0.30746082
   3       0.00018854
   4       0.00000000
   5      -0.00000000
   6       0.02500361
   7       0.00001551
   8      -0.00000000
   9       0.00000000
  10       0.00172697
  11       0.00013775
  12       0.00000000
  13      -0.00000000
  14      -0.00072484
  15      -0.00029315
  16      -0.00000000
  17       0.00000000
  18      -0.00864718
  19      -0.00902980
  20      -0.00902980
  21      -0.00000000
  22      -0.00000000
  23       0.00000000
  24       0.42137005
  25       0.30746082
  26      -0.00018854
  27      -0.00000000
  28       0.00000000
  29       0.02500361
  30      -0.00001551
  31       0.00000000
  32      -0.00000000
  33       0.00172697
  34      -0.00013775
  35      -0.00000000
  36       0.00000000
  37      -0.00072484
  38       0.00029315
  39       0.00000000
  40      -0.00000000
  41      -0.00864718
  42      -0.00902980
  43      -0.00902980
  44      -0.00000000
  45       0.00000000
  46      -0.00000000
Ene=    -4.07600E+00
Spin= Alpha
Occup=   2.0000000000
   1       0.42141837
   2       0.30743534
   3       0.00033920
   4       0.00000000
   5       0.00000000
   6       0.02474920
   7      -0.00201324
   8       0.00000000
   9      -0.00000000
  10       0.00568311
  11       0.00224347
  12      -0.00000000
  13       0.00000000
  14      -0.01182011
  15      -0.00376298
  16      -0.00000000
  17      -0.00000000
  18      -0.01046942
  19      -0.00909490
  20      -0.00909490
  21      -0.00000000
  22       0.00000000
  23       0.00000000
  24      -0.42141837
  25      -0.30743534
  26       0.00033920
  27       0.00000000
  28       0.00000000
  29      -0.02474920
  30      -0.00201324
  31      -0.00000000
  32       0.00000000
  33      -0.00568311
  34       0.00224347
  35       0.00000000
  36      -0.00000000
  37       0.01182011
  38      -0.00376298
  39      -0.00000000
  40       0.00000000
  41       0.01046942
  42       0.00909490
  43       0.00909490
  44       0.00000000
  45       0.00000000
  46      -0.00000000
Ene=    -2.95884E-01
Spin= Alpha
Occup=   2.0000000000
   1       0.08571102
   2       0.12741339
   3      -0.06211357
   4       0.00000000
   5       0.00000000
   6      -0.41122797
   7      -0.08972262
   8       0.00000000
   9       0.00000000
  10      -0.20836713
  11      -0.01683992
  12      -0.00000000
  13      -0.00000000
  14      -0.00033252
  15       0.00187667
  16       0.00000000
  17      -0.00000000
  18      -0.01313782
  19       0.01169463
  20       0.01169463
  21       0.00000000
  22       0.00000000
  23      -0.00000000
  24       0.08571102
  25       0.12741339
  26       0.06211357
  27       0.00000000
  28       0.00000000
  29      -0.41122797
  30       0.08972262
  31      -0.00000000
  32       0.00000000
  33      -0.20836713
  34       0.01683992
  35       0.00000000
  36      -0.00000000
  37      -0.00033252
  38      -0.00187667
  39      -0.00000000
  40       0.00000000
  41      -0.01313782
  42       0.01169463
  43       0.01169463
  44       0.00000000
  45      -0.00000000
  46       0.00000000
Ene=    -1.82158E-01
Spin= Alpha
Occup=   2.0000000000
   1       0.08349071
   2       0.12717788
   3       0.06481782
   4      -0.00000000
   5       0.00000000
   6      -0.42221814
   7       0.09167282
   8      -0.00000000
   9       0.00000000
  10      -0.43689140
  11       0.04279844
  12      -0.00000000
  13      -0.00000000
  14      -0.03501614
  15       0.01025151
  16      -0.00000000
  17       0.00000000
  18       0.01085016
  19       0.00160970
  20       0.00160970
  21       0.00000000
  22       0.00000000
  23      -0.00000000
  24      -0.08349071
  25      -0.12717788
  26       0.06481782
  27       0.00000000
  28       0.00000000
  29       0.42221814
  30       0.09167282
  31      -0.00000000
  32       0.00000000
  33       0.43689140
  34       0.04279844
  35       0.00000000
  36       0.00000000
  37       0.03501614
  38       0.01025151
  39      -0.00000000
  40      -0.00000000
  41      -0.01085016
  42      -0.00160970
  43      -0.00160970
  44      -0.00000000
  45      -0.00000000
  46      -0.00000000
Ene=    -8.31057E-02
Spin= Alpha
Occup=   0.0000000000
   1      -0.01585794
   2      -0.02445616
   3      -0.18621026
   4       0.00000000
   5      -0.00000000
   6       0.06998473
   7      -0.28120964
   8       0.00000000
   9      -0.00000000
  10       0.20227154
  11      -0.23774785
  12       0.00000000
  13      -0.00000000
  14       0.11308787
  15      -0.06172337
  16      -0.00000000
  17      -0.00000000
  18      -0.01592337
  19       0.00566015
  20       0.00566015
  21       0.00000000
  22      -0.00000000
  23      -0.00000000
  24      -0.01585794
  25      -0.02445616
  26       0.18621026
  27       0.00000000
  28      -0.00000000
  29       0.06998473
  30       0.28120964
  31       0.00000000
  32      -0.00000000
  33       0.20227154
  34       0.23774785
  35       0.00000000
  36      -0.00000000
  37       0.11308787
  38       0.06172337
  39       0.00000000
  40      -0.00000000
  41      -0.01592337
  42       0.00566015
  43       0.00566015
  44      -0.00000000
  45       0.00000000
  46      -0.00000000
Ene=    -8.11491E-02
Spin= Alpha
Occup=   0.0000000000
   1      -0.00000000
   2      -0.00000000
   3      -0.00000000
   4      -0.00598017
   5       0.15951269
   6       0.00000000
   7      -0.00000000
   8      -0.00955750
   9       0.25493272
  10       0.00000000
  11      -0.00000000
  12      -0.00966915
  13       0.25791096
  14      -0.00000000
  15      -0.00000000
  16      -0.00235124
  17       0.06271605
  18      -0.00000000
  19      -0.00000000
  20      -0.00000000
  21      -0.00082836
  22       0.02209522
  23       0.00000000
  24      -0.00000000
  25      -0.00000000
  26       0.00000000
  27      -0.00598017
  28       0.15951269
  29       0.00000000
  30       0.00000000
  31      -0.00955750
  32       0.25493272
  33      -0.00000000
  34       0.00000000
  35      -0.00966915
  36       0.25791096
  37       0.00000000
  38      -0.00000000
  39      -0.00235124
  40       0.06271605
  41       0.00000000
  42       0.00000000
  43       0.00000000
  44       0.00082836
  45      -0.02209522
  46       0.00000000
Ene=    -8.11491E-02
Spin= Alpha
Occup=   0.0000000000
   1      -0.00000000
   2       0.00000000
   3      -0.00000000
   4      -0.15951269
   5      -0.00598017
   6       0.00000000
   7      -0.00000000
   8      -0.25493272
   9      -0.00955750
  10      -0.00000000
  11      -0.00000000
  12      -0.25791096
  13      -0.00966915
  14       0.00000000
  15       0.00000000
  16      -0.06271605
  17      -0.00235124
  18       0.00000000
  19       0.00000000
  20       0.00000000
  21      -0.02209522
  22      -0.00082836
  23       0.00000000
  24      -0.00000000
  25      -0.00000000
  26       0.00000000
  27      -0.15951269
  28      -0.00598017
  29      -0.00000000
  30       0.00000000
  31      -0.25493272
  32      -0.00955750
  33       0.00000000
  34      -0.00000000
  35      -0.25791096
  36      -0.00966915
  37      -0.00000000
  38       0.00000000
  39      -0.06271605
  40      -0.00235124
  41      -0.00000000
  42      -0.00000000
  43      -0.00000000
  44       0.02209522
  45       0.00082836
  46       0.00000000
Ene=    -1.02885E-02
Spin= Alpha
Occup=   0.0000000000
   1      -0.00000000
   2       0.00000000
   3      -0.00000000
   4       0.05831263
   5      -0.15384919
   6      -0.00000000
   7      -0.00000000
   8       0.09253953
   9      -0.24415178
  10      -0.00000000
  11      -0.00000000
  12       0.14877611
  13      -0.39252364
  14       0.00000000
  15       0.00000000
  16       0.18127523
  17      -0.47826772
  18       0.00000000
  19       0.00000000
  20       0.00000000
  21      -0.00730584
  22       0.01927536
  23      -0.00000000
  24      -0.00000000
  25      -0.00000000
  26       0.00000000
  27      -0.05831263
  28       0.15384919
  29       0.00000000
  30       0.00000000
  31      -0.09253953
  32       0.24415178
  33       0.00000000
  34      -0.00000000
  35      -0.14877611
  36       0.39252364
  37      -0.00000000
  38       0.00000000
  39      -0.18127523
  40       0.47826772
  41       0.00000000
  42      -0.00000000
  43       0.00000000
  44      -0.00730584
  45       0.01927536
  46       0.00000000
Ene=    -1.02885E-02
Spin= Alpha
Occup=   0.0000000000
   1      -0.00000000
   2       0.00000000
   3      -0.00000000
   4      -0.15384919
   5      -0.05831263
   6       0.00000000
   7       0.00000000
   8      -0.24415178
   9      -0.09253953
  10      -0.00000000
  11      -0.00000000
  12      -0.39252364
  13      -0.14877611
  14       0.00000000
  15       0.00000000
  16      -0.47826772
  17      -0.18127523
  18       0.00000000
  19       0.00000000
  20       0.00000000
  21       0.01927536
  22       0.00730584
  23      -0.00000000
  24      -0.00000000
  25      -0.00000000
  26      -0.00000000
  27       0.15384919
  28       0.05831263
  29       0.00000000
  30      -0.00000000
  31       0.24415178
  32       0.09253953
  33       0.00000000
  34       0.00000000
  35       0.39252364
  36       0.14877611
  37      -0.00000000
  38       0.00000000
  39       0.47826772
  40       0.18127523
  41      -0.00000000
  42      -0.00000000
  43      -0.00000000
  44       0.01927536
  45       0.00730584
  46      -0.00000000
Ene=     1.83906E-02
Spin= Alpha
Occup=   0.0000000000
   1       0.03019432
   2       0.05189608
   3       0.06304389
   4       0.00000000
   5       0.00000000
   6      -0.13744216
   7       0.06069137
   8      -0.00000000
   9      -0.00000000
  10      -0.83998863
  11       0.24758629
  12      -0.00000000
  13       0.00000000
  14       1.03083514
  15      -0.23374335
  16      -0.00000000
  17       0.00000000
  18       0.01054366
  19       0.02237552
  20       0.02237552
  21      -0.00000000
  22      -0.00000000
  23      -0.00000000
  24       0.03019432
  25       0.05189608
  26      -0.06304389
  27      -0.00000000
  28       0.00000000
  29      -0.13744216
  30      -0.06069137
  31      -0.00000000
  32       0.00000000
  33      -0.83998863
  34      -0.24758629
  35      -0.00000000
  36       0.00000000
  37       1.03083514
  38       0.23374335
  39       0.00000000
  40      -0.00000000
  41       0.01054366
  42       0.02237552
  43       0.02237552
  44       0.00000000
  45      -0.00000000
  46      -0.00000000
Ene=     1.94510E-02
Spin= Alpha
Occup=   0.0000000000
   1      -0.02997891
   2      -0.04704142
   3      -0.00705634
   4      -0.00000000
   5      -0.00000000
   6       0.19147405
   7       0.03422947
   8      -0.00000000
   9      -0.00000000
  10       0.17880764
  11      -0.17792639
  12      -0.00000000
  13      -0.00000000
  14       5.48042041
  15       2.64293393
  16      -0.00000000
  17      -0.00000000
  18      -0.01331801
  19       0.00615391
  20       0.00615391
  21      -0.00000000
  22       0.00000000
  23      -0.00000000
  24       0.02997891
  25       0.04704142
  26      -0.00705634
  27      -0.00000000
  28       0.00000000
  29      -0.19147405
  30       0.03422947
  31       0.00000000
  32       0.00000000
  33      -0.17880764
  34      -0.17792639
  35      -0.00000000
  36       0.00000000
  37      -5.48042041
  38       2.64293393
  39       0.00000000
  40       0.00000000
  41       0.01331801
  42      -0.00615391
  43      -0.00615391
  44      -0.00000000
  45       0.00000000
  46       0.00000000
Ene=     3.39455E-02
Spin= Alpha
Occup=   0.0000000000
   1      -0.00000000
   2      -0.00000000
   3       0.00000000
   4       0.09389756
   5      -0.00783981
   6       0.00000000
   7       0.00000000
   8       0.08285727
   9      -0.00691802
  10       0.00000000
  11      -0.00000000
  12       0.41960280
  13      -0.03503399
  14      -0.00000000
  15      -0.00000000
  16      -0.72766478
  17       0.06075507
  18      -0.00000000
  19      -0.00000000
  20      -0.00000000
  21       0.01746198
  22      -0.00145796
  23       0.00000000
  24       0.00000000
  25       0.00000000
  26      -0.00000000
  27       0.09389756
  28      -0.00783981
  29      -0.00000000
  30       0.00000000
  31       0.08285727
  32      -0.00691802
  33      -0.00000000
  34      -0.00000000
  35       0.41960280
  36      -0.03503399
  37       0.00000000
  38       0.00000000
  39      -0.72766478
  40       0.06075507
  41       0.00000000
  42       0.00000000
  43       0.00000000
  44      -0.01746198
  45       0.00145796
  46      -0.00000000
Ene=     3.39455E-02
Spin= Alpha
Occup=   0.0000000000
   1      -0.00000000
   2      -0.00000000
   3      -0.00000000
   4       0.00783981
   5       0.09389756
   6       0.00000000
   7       0.00000000
   8       0.00691802
   9       0.08285727
  10       0.00000000
  11      -0.00000000
  12       0.03503399
  13       0.41960280
  14      -0.00000000
  15      -0.00000000
  16      -0.06075507
  17      -0.72766478
  18      -0.00000000
  19      -0.00000000
  20      -0.00000000
  21       0.00145796
  22       0.01746198
  23       0.00000000
  24       0.00000000
  25       0.00000000
  26      -0.00000000
  27       0.00783981
  28       0.09389756
  29      -0.00000000
  30       0.00000000
  31       0.00691802
  32       0.08285727
  33      -0.00000000
  34       0.00000000
  35       0.03503399
  36       0.41960280
  37       0.00000000
  38      -0.00000000
  39      -0.06075507
  40      -0.72766478
  41       0.00000000
  42       0.00000000
  43       0.00000000
  44      -0.00145796
  45      -0.01746198
  46       0.00000000
Ene=     4.10456E-02
Spin= Alpha
Occup=   0.0000000000
   1      -0.00709208
   2      -0.01324635
   3       0.05837796
   4       0.00000000
   5      -0.00000000
   6       0.02230070
   7       0.04617556
   8      -0.00000000
   9      -0.00000000
  10       0.35744125
  11       0.22675128
  12       0.00000000
  13      -0.00000000
  14       0.00884372
  15      -1.40591001
  16      -0.00000000
  17       0.00000000
  18       0.02056281
  19      -0.02243645
  20      -0.02243645
  21      -0.00000000
  22      -0.00000000
  23      -0.00000000
  24      -0.00709208
  25      -0.01324635
  26      -0.05837796
  27      -0.00000000
  28      -0.00000000
  29       0.02230070
  30      -0.04617556
  31       0.00000000
  32       0.00000000
  33       0.35744125
  34      -0.22675128
  35      -0.00000000
  36      -0.00000000
  37       0.00884372
  38       1.40591001
  39       0.00000000
  40       0.00000000
  41       0.02056281
  42      -0.02243645
  43      -0.02243645
  44      -0.00000000
  45       0.00000000
  46      -0.00000000
Ene=     5.52493E-02
Spin= Alpha
Occup=   0.0000000000
   1      -0.00000000
   2      -0.00000000
   3       0.00000000
   4      -0.12768209
   5      -0.00071684
   6       0.00000000
   7       0.00000000
   8      -0.12657808
   9      -0.00071065
  10       0.00000000
  11       0.00000000
  12      -0.69523817
  13      -0.00390326
  14       0.00000000
  15       0.00000000
  16       1.95878567
  17       0.01099718
  18      -0.00000000
  19      -0.00000000
  20       0.00000000
  21       0.00259746
  22       0.00001458
  23       0.00000000
  24       0.00000000
  25       0.00000000
  26       0.00000000
  27       0.12768209
  28       0.00071684
  29      -0.00000000
  30       0.00000000
  31       0.12657808
  32       0.00071065
  33      -0.00000000
  34      -0.00000000
  35       0.69523817
  36       0.00390326
  37      -0.00000000
  38       0.00000000
  39      -1.95878567
  40      -0.01099718
  41       0.00000000
  42       0.00000000
  43      -0.00000000
  44       0.00259746
  45       0.00001458
  46       0.00000000
Ene=     5.52493E-02
Spin= Alpha
Occup=   0.0000000000
   1       0.00000000
   2       0.00000000
   3       0.00000000
   4      -0.00071684
   5       0.12768209
   6      -0.00000000
   7      -0.00000000
   8      -0.00071065
   9       0.12657808
  10      -0.00000000
  11       0.00000000
  12      -0.00390326
  13       0.69523817
  14       0.00000000
  15       0.00000000
  16       0.01099718
  17      -1.95878567
  18       0.00000000
  19       0.00000000
  20       0.00000000
  21       0.00001458
  22      -0.00259746
  23      -0.00000000
  24      -0.00000000
  25      -0.00000000
  26       0.00000000
  27       0.00071684
  28      -0.12768209
  29      -0.00000000
  30      -0.00000000
  31       0.00071065
  32      -0.12657808
  33       0.00000000
  34      -0.00000000
  35       0.00390326
  36      -0.69523817
  37      -0.00000000
  38       0.00000000
  39      -0.01099718
  40       1.95878567
  41      -0.00000000
  42      -0.00000000
  43      -0.00000000
  44       0.00001458
  45      -0.00259746
  46      -0.00000000
Ene=     7.33445E-02
Spin= Alpha
Occup=   0.0000000000
   1      -0.01510468
   2      -0.02903089
   3      -0.04666282
   4       0.00000000
   5       0.00000000
   6       0.01056834
   7      -0.00289192
   8       0.00000000
   9       0.00000000
  10       1.00658890
  11      -0.44639911
  12      -0.00000000
  13       0.00000000
  14     -21.59304568
  15      -6.98331067
  16       0.00000000
  17      -0.00000000
  18       0.00197946
  19      -0.03158085
  20      -0.03158085
  21       0.00000000
  22      -0.00000000
  23      -0.00000000
  24       0.01510468
  25       0.02903089
  26      -0.04666282
  27      -0.00000000
  28      -0.00000000
  29      -0.01056834
  30      -0.00289192
  31      -0.00000000
  32      -0.00000000
  33      -1.00658890
  34      -0.44639911
  35      -0.00000000
  36      -0.00000000
  37      21.59304568
  38      -6.98331067
  39       0.00000000
  40       0.00000000
  41      -0.00197946
  42       0.03158085
  43       0.03158085
  44       0.00000000
  45      -0.00000000
  46       0.00000000
Ene=     1.14761E-01
Spin= Alpha
Occup=   0.0000000000
   1       0.04624189
   2       0.07848944
   3      -0.15033232
   4      -0.00000000
   5      -0.00000000
   6      -0.17650699
   7      -0.14659691
   8      -0.00000000
   9      -0.00000000
  10      -2.96330124
  11      -2.37745883
  12      -0.00000000
  13      -0.00000000
  14       6.77246023
  15       2.78278047
  16      -0.00000000
  17       0.00000000
  18       0.06919979
  19      -0.00141138
  20      -0.00141138
  21      -0.00000000
  22       0.00000000
  23       0.00000000
  24      -0.04624189
  25      -0.07848944
  26      -0.15033232
  27       0.00000000
  28       0.00000000
  29       0.17650699
  30      -0.14659691
  31       0.00000000
  32       0.00000000
  33       2.96330124
  34      -2.37745883
  35      -0.00000000
  36       0.00000000
  37      -6.77246023
  38       2.78278047
  39      -0.00000000
  40      -0.00000000
  41      -0.06919979
  42       0.00141138
  43       0.00141138
  44      -0.00000000
  45      -0.00000000
  46      -0.00000000
Ene=     2.02992E-01
Spin= Alpha
Occup=   0.0000000000
   1      -0.00493892
   2       0.00045223
   3       0.11070058
   4       0.00000000
   5      -0.00000000
   6       0.36613977
   7       0.67643139
   8       0.00000000
   9      -0.00000000
  10      -0.36142529
  11      -1.46760157
  12      -0.00000000
  13       0.00000000
  14      -0.02260544
  15       1.09403913
  16       0.00000000
  17      -0.00000000
  18       0.10288867
  19       0.01277711
  20       0.01277711
  21       0.00000000
  22       0.00000000
  23      -0.00000000
  24      -0.00493892
  25       0.00045223
  26      -0.11070058
  27      -0.00000000
  28      -0.00000000
  29       0.36613977
  30      -0.67643139
  31      -0.00000000
  32       0.00000000
  33      -0.36142529
  34       1.46760157
  35       0.00000000
  36      -0.00000000
  37      -0.02260544
  38      -1.09403913
  39      -0.00000000
  40       0.00000000
  41       0.10288867
  42       0.01277711
  43       0.01277711
  44      -0.00000000
  45      -0.00000000
  46      -0.00000000
Ene=     2.22210E-01
Spin= Alpha
Occup=   0.0000000000
   1       0.00000000
   2       0.00000000
   3       0.00000000
   4       0.15971678
   5      -0.02326166
   6      -0.00000000
   7       0.00000000
   8       0.79905633
   9      -0.11637712
  10       0.00000000
  11      -0.00000000
  12      -1.21071697
  13       0.17633270
  14       0.00000000
  15       0.00000000
  16       0.53563316
  17      -0.07801133
  18      -0.00000000
  19      -0.00000000
  20      -0.00000000
  21       0.04700247
  22      -0.00684559
  23      -0.00000000
  24       0.00000000
  25       0.00000000
  26      -0.00000000
  27       0.15971678
  28      -0.02326166
  29      -0.00000000
  30      -0.00000000
  31       0.79905633
  32      -0.11637712
  33       0.00000000
  34       0.00000000
  35      -1.21071697
  36       0.17633270
  37      -0.00000000
  38       0.00000000
  39       0.53563316
  40      -0.07801133
  41      -0.00000000
  42      -0.00000000
  43      -0.00000000
  44      -0.04700247
  45       0.00684559
  46       0.00000000
Ene=     2.22210E-01
Spin= Alpha
Occup=   0.0000000000
   1      -0.00000000
   2      -0.00000000
   3      -0.00000000
   4      -0.02326166
   5      -0.15971678
   6       0.00000000
   7      -0.00000000
   8      -0.11637712
   9      -0.79905633
  10      -0.00000000
  11       0.00000000
  12       0.17633270
  13       1.21071697
  14       0.00000000
  15       0.00000000
  16      -0.07801133
  17      -0.53563316
  18       0.00000000
  19       0.00000000
  20       0.00000000
  21      -0.00684559
  22      -0.04700247
  23      -0.00000000
  24      -0.00000000
  25      -0.00000000
  26       0.00000000
  27      -0.02326166
  28      -0.15971678
  29       0.00000000
  30       0.00000000
  31      -0.11637712
  32      -0.79905633
  33      -0.00000000
  34      -0.00000000
  35       0.17633270
  36       1.21071697
  37      -0.00000000
  38       0.00000000
  39      -0.07801133
  40      -0.53563316
  41       0.00000000
  42       0.00000000
  43       0.00000000
  44       0.00684559
  45       0.04700247
  46      -0.00000000
Ene=     2.28079E-01
Spin= Alpha
Occup=   0.0000000000
   1      -0.07267595
   2      -0.08701632
   3      -0.05924740
   4       0.00000000
   5       0.00000000
   6       1.32329318
   7      -0.19488066
   8       0.00000000
   9       0.00000000
  10      -2.27800216
  11       0.29708559
  12      -0.00000000
  13      -0.00000000
  14       0.90641472
  15       0.08249808
  16       0.00000000
  17       0.00000000
  18       0.18215362
  19       0.12307423
  20       0.12307423
  21       0.00000000
  22       0.00000000
  23      -0.00000000
  24      -0.07267595
  25      -0.08701632
  26       0.05924740
  27       0.00000000
  28      -0.00000000
  29       1.32329318
  30       0.19488066
  31       0.00000000
  32      -0.00000000
  33      -2.27800216
  34      -0.29708559
  35      -0.00000000
  36       0.00000000
  37       0.90641472
  38      -0.08249808
  39      -0.00000000
  40      -0.00000000
  41       0.18215362
  42       0.12307423
  43       0.12307423
  44      -0.00000000
  45      -0.00000000
  46      -0.00000000
Ene=     2.41395E-01
Spin= Alpha
Occup=   0.0000000000
   1       0.00000000
   2       0.00000000
   3      -0.00000000
   4       0.17207554
   5       0.05899439
   6      -0.00000000
   7      -0.00000000
   8       0.77806592
   9       0.26675218
  10       0.00000000
  11       0.00000000
  12      -1.74461731
  13      -0.59812473
  14       0.00000000
  15       0.00000000
  16       1.19633038
  17       0.41015000
  18      -0.00000000
  19      -0.00000000
  20      -0.00000000
  21       0.00330247
  22       0.00113222
  23       0.00000000
  24       0.00000000
  25       0.00000000
  26      -0.00000000
  27      -0.17207554
  28      -0.05899439
  29      -0.00000000
  30      -0.00000000
  31      -0.77806592
  32      -0.26675218
  33       0.00000000
  34       0.00000000
  35       1.74461731
  36       0.59812473
  37      -0.00000000
  38       0.00000000
  39      -1.19633038
  40      -0.41015000
  41      -0.00000000
  42      -0.00000000
  43      -0.00000000
  44       0.00330247
  45       0.00113222
  46      -0.00000000
Ene=     2.41395E-01
Spin= Alpha
Occup=   0.0000000000
   1      -0.00000000
   2      -0.00000000
   3      -0.00000000
   4       0.05899439
   5      -0.17207554
   6       0.00000000
   7      -0.00000000
   8       0.26675218
   9      -0.77806592
  10      -0.00000000
  11       0.00000000
  12      -0.59812473
  13       1.74461731
  14      -0.00000000
  15      -0.00000000
  16       0.41015000
  17      -1.19633038
  18       0.00000000
  19       0.00000000
  20       0.00000000
  21       0.00113222
  22      -0.00330247
  23      -0.00000000
  24      -0.00000000
  25      -0.00000000
  26      -0.00000000
  27      -0.05899439
  28       0.17207554
  29       0.00000000
  30      -0.00000000
  31      -0.26675218
  32       0.77806592
  33      -0.00000000
  34       0.00000000
  35       0.59812473
  36      -1.74461731
  37       0.00000000
  38      -0.00000000
  39      -0.41015000
  40       1.19633038
  41       0.00000000
  42       0.00000000
  43       0.00000000
  44       0.00113222
  45      -0.00330247
  46      -0.00000000
Ene=     2.50578E-01
Spin= Alpha
Occup=   0.0000000000
   1       0.01415424
   2       0.01337288
   3       0.22835656
   4       0.00000000
   5      -0.00000000
   6      -0.39776891
   7       0.88950675
   8       0.00000000
   9      -0.00000000
  10       0.29109724
  11      -1.62955054
  12      -0.00000000
  13       0.00000000
  14      -4.47323197
  15      -0.89351398
  16       0.00000000
  17      -0.00000000
  18      -0.09711059
  19      -0.01771550
  20      -0.01771550
  21       0.00000000
  22       0.00000000
  23      -0.00000000
  24      -0.01415424
  25      -0.01337288
  26       0.22835656
  27      -0.00000000
  28      -0.00000000
  29       0.39776891
  30       0.88950675
  31      -0.00000000
  32      -0.00000000
  33      -0.29109724
  34      -1.62955054
  35       0.00000000
  36      -0.00000000
  37       4.47323197
  38      -0.89351398
  39      -0.00000000
  40       0.00000000
  41       0.09711059
  42       0.01771550
  43       0.01771550
  44       0.00000000
  45       0.00000000
  46       0.00000000
Ene=     3.05816E-01
Spin= Alpha
Occup=   0.0000000000
   1      -0.07803309
   2      -0.09566820
   3       0.12120155
   4      -0.00000000
   5      -0.00000000
   6       1.66651153
   7       0.23915254
   8      -0.00000000
   9      -0.00000000
  10      -6.73163271
  11      -2.71802676
  12       0.00000000
  13       0.00000000
  14      12.36986277
  15       4.02190825
  16      -0.00000000
  17       0.00000000
  18       0.11198368
  19       0.18316738
  20       0.18316738
  21      -0.00000000
  22      -0.00000000
  23       0.00000000
  24       0.07803309
  25       0.09566820
  26       0.12120155
  27      -0.00000000
  28       0.00000000
  29      -1.66651153
  30       0.23915254
  31      -0.00000000
  32       0.00000000
  33       6.73163271
  34      -2.71802676
  35       0.00000000
  36       0.00000000
  37     -12.36986277
  38       4.02190825
  39      -0.00000000
  40      -0.00000000
  41      -0.11198368
  42      -0.18316738
  43      -0.18316738
  44       0.00000000
  45       0.00000000
  46      -0.00000000
Ene=     4.44863E-01
Spin= Alpha
Occup=   0.0000000000
   1       0.00000000
   2      -0.00000000
   3       0.00000000
   4      -0.07762624
   5       0.00437989
   6       0.00000000
   7      -0.00000000
   8      -0.09363836
   9       0.00528334
  10      -0.00000000
  11      -0.00000000
  12      -0.00347283
  13       0.00019595
  14       0.00000000
  15       0.00000000