[Molden Format]
[Atoms] AU
E+       1       4     0.00000000     0.00000000     0.00000000
BE       2       4     4.54000000     0.00000000     0.00000000
[GTO]
  1 0
s  1 1.00
   1.0000000000E-04   1.0000000000E+00
s  1 1.00
   3.0000000000E-04   1.0000000000E+00
s  1 1.00
   9.0000000000E-04   1.0000000000E+00
s  1 1.00
   2.7000000000E-03   1.0000000000E+00
s  1 1.00
   8.1000000000E-03   1.0000000000E+00
s  1 1.00
   2.4300000000E-02   1.0000000000E+00
s  1 1.00
   7.2900000000E-02   1.0000000000E+00
s  1 1.00
   2.1870000000E-01   1.0000000000E+00
s  1 1.00
   6.5610000000E-01   1.0000000000E+00
s  1 1.00
   1.9683000000E+00   1.0000000000E+00
p  1 1.00
   1.0000000000E-04   1.0000000000E+00
p  1 1.00
   3.0000000000E-04   1.0000000000E+00
p  1 1.00
   9.0000000000E-04   1.0000000000E+00
p  1 1.00
   2.7000000000E-03   1.0000000000E+00
d  1 1.00
   1.0000000000E-04   1.0000000000E+00
d  1 1.00
   3.0000000000E-04   1.0000000000E+00
 
  2 0
 s  1 1.00
   1.0000000000E+00   1.0000000000E+00
 
 
[MO]
Ene=     7.63283E-05
Spin= Alpha
Occup=   1.0000000000
   1       1.95844568
   2      -0.70474751
   3      -0.19409127
   4       0.04105835
   5      -0.00733311
   6       0.00558234
   7      -0.00059443
   8       0.00025823
   9       0.00000434
  10       0.00000621
  11      -0.00063285
  12       0.00000000
  13       0.00000000
  14       0.00268085
  15       0.00000000
  16      -0.00000000
  17      -0.00208337
  18       0.00000000
  19       0.00000000
  20       0.00337373
  21       0.00000000
  22       0.00000000
  23      -0.79184883
  24      -0.78774938
  25      -0.78774938
  26      -0.00000000
  27      -0.00000000
  28       0.00000000
  29      -0.37116357
  30      -0.36526160
  31      -0.36526160
  32      -0.00000000
  33      -0.00000000
  34       0.00000000
  35   0.00000000E+00
Ene=     2.23717E-04
Spin= Alpha
Occup=   0.0000000000
   1       0.01191261
   2      -0.00261462
   3      -0.00065025
   4       0.00040730
   5       0.00005704
   6       0.00018112
   7      -0.00009076
   8      -0.00002008
   9       0.00000267
  10      -0.00000122
  11      -1.18383484
  12       0.00000000
  13       0.00000000
  14       0.31731262
  15      -0.00000000
  16      -0.00000000
  17      -0.08057944
  18       0.00000000
  19       0.00000000
  20       0.01506534
  21      -0.00000000
  22       0.00000000
  23      -0.00364821
  24      -0.00286648
  25      -0.00286648
  26       0.00000000
  27       0.00000000
  28      -0.00000000
  29      -0.00191703
  30      -0.00150981
  31      -0.00150981
  32       0.00000000
  33      -0.00000000
  34       0.00000000
  35   0.00000000E+00
Ene=     2.26523E-04
Spin= Alpha
Occup=   0.0000000000
   1       0.00000000
   2      -0.00000000
   3      -0.00000000
   4       0.00000000
   5      -0.00000000
   6       0.00000000
   7      -0.00000000
   8      -0.00000000
   9      -0.00000000
  10       0.00000000
  11      -0.00000000
  12      -1.18865023
  13       0.00000807
  14       0.00000000
  15       0.32554585
  16      -0.00000221
  17      -0.00000000
  18      -0.08001759
  19       0.00000054
  20       0.00000000
  21       0.01575936
  22      -0.00000011
  23      -0.00000000
  24      -0.00000000
  25      -0.00000000
  26       0.00029740
  27      -0.00000000
  28       0.00000000
  29      -0.00000000
  30      -0.00000000
  31      -0.00000000
  32       0.00018024
  33      -0.00000000
  34      -0.00000000
  35   0.00000000E+00
Ene=     2.26523E-04
Spin= Alpha
Occup=   0.0000000000
   1       0.00000000
   2      -0.00000000
   3      -0.00000000
   4       0.00000000
   5      -0.00000000
   6      -0.00000000
   7       0.00000000
   8      -0.00000000
   9      -0.00000000
  10       0.00000000
  11      -0.00000000
  12      -0.00000807
  13      -1.18865023
  14       0.00000000
  15       0.00000221
  16       0.32554585
  17      -0.00000000
  18      -0.00000054
  19      -0.08001759
  20       0.00000000
  21       0.00000011
  22       0.01575936
  23      -0.00000000
  24      -0.00000000
  25      -0.00000000
  26       0.00000000
  27       0.00029740
  28      -0.00000000
  29      -0.00000000
  30      -0.00000000
  31      -0.00000000
  32       0.00000000
  33       0.00018024
  34       0.00000000
  35   0.00000000E+00
Ene=     3.23577E-04
Spin= Alpha
Occup=   0.0000000000
   1      -6.44960634
   2       1.68112507
   3       0.46529176
   4      -0.07300283
   5       0.02668862
   6      -0.00010145
   7       0.00226306
   8      -0.00046701
   9       0.00027803
  10      -0.00003527
  11      -0.00676903
  12      -0.00000000
  13      -0.00000000
  14       0.00902107
  15       0.00000000
  16       0.00000000
  17      -0.00511511
  18       0.00000000
  19      -0.00000000
  20       0.00760857
  21      -0.00000000
  22       0.00000000
  23       1.35525929
  24       1.53922954
  25       1.53922954
  26       0.00000000
  27      -0.00000000
  28       0.00000000
  29       0.86272627
  30       0.84781304
  31       0.84781304
  32      -0.00000000
  33       0.00000000
  34      -0.00000000
  35   0.00000000E+00
Ene=     3.30294E-04
Spin= Alpha
Occup=   0.0000000000
   1      -0.74797836
   2       0.19358900
   3       0.05375354
   4      -0.00838441
   5       0.00311003
   6       0.00002515
   7       0.00026211
   8      -0.00005388
   9       0.00003291
  10      -0.00000415
  11      -0.00168678
  12      -0.00000000
  13      -0.00000000
  14       0.00149707
  15      -0.00000000
  16       0.00000000
  17      -0.00071009
  18       0.00000000
  19      -0.00000000
  20       0.00093775
  21      -0.00000000
  22       0.00000000
  23       1.26056997
  24      -0.37561636
  25      -0.37561636
  26      -0.00000000
  27      -0.00000000
  28       0.00000000
  29      -0.07982578
  30       0.18779930
  31       0.18779930
  32       0.00000000
  33       0.00000000
  34      -0.00000000
  35   0.00000000E+00
Ene=     3.30527E-04
Spin= Alpha
Occup=   0.0000000000
   1       0.00000000
   2      -0.00000000
   3      -0.00000000
   4      -0.00000000
   5       0.00000000
   6      -0.00000000
   7       0.00000000
   8      -0.00000000
   9      -0.00000000
  10       0.00000000
  11       0.00000000
  12      -0.00050758
  13       0.00002085
  14       0.00000000
  15       0.00022593
  16      -0.00000928
  17      -0.00000000
  18      -0.00004894
  19       0.00000201
  20      -0.00000000
  21       0.00000401
  22      -0.00000016
  23      -0.00000000
  24       0.00000000
  25      -0.00000000
  26      -1.09693630
  27       0.04506594
  28       0.00000000
  29       0.00000000
  30      -0.00000000
  31       0.00000000
  32       0.17861556
  33      -0.00733815
  34      -0.00000000
  35   0.00000000E+00
Ene=     3.30527E-04
Spin= Alpha
Occup=   0.0000000000
   1       0.00000000
   2      -0.00000000
   3      -0.00000000
   4       0.00000000
   5      -0.00000000
   6      -0.00000000
   7      -0.00000000
   8       0.00000000
   9      -0.00000000
  10       0.00000000
  11       0.00000000
  12      -0.00002085
  13      -0.00050758
  14      -0.00000000
  15       0.00000928
  16       0.00022593
  17       0.00000000
  18      -0.00000201
  19      -0.00004894
  20      -0.00000000
  21       0.00000016
  22       0.00000401
  23      -0.00000000
  24       0.00000000
  25      -0.00000000
  26      -0.04506594
  27      -1.09693630
  28      -0.00000000
  29       0.00000000
  30      -0.00000000
  31      -0.00000000
  32       0.00733815
  33       0.17861556
  34       0.00000000
  35   0.00000000E+00
Ene=     3.31498E-04
Spin= Alpha
Occup=   0.0000000000
   1      -0.00000000
   2       0.00000000
   3       0.00000000
   4      -0.00000000
   5       0.00000000
   6       0.00000000
   7       0.00000000
   8      -0.00000000
   9       0.00000000
  10      -0.00000000
  11      -0.00000000
  12       0.00000000
  13      -0.00000000
  14       0.00000000
  15      -0.00000000
  16       0.00000000
  17      -0.00000000
  18       0.00000000
  19       0.00000000
  20       0.00000000
  21      -0.00000000
  22       0.00000000
  23       0.00000000
  24       0.95116262
  25      -0.95116262
  26       0.00000000
  27       0.00000000
  28      -0.01947537
  29       0.00000000
  30      -0.15588681
  31       0.15588681
  32      -0.00000000
  33      -0.00000000
  34       0.00319183
  35   0.00000000E+00
Ene=     3.31498E-04
Spin= Alpha
Occup=   0.0000000000
   1      -0.00000000
   2       0.00000000
   3       0.00000000
   4      -0.00000000
   5       0.00000000
   6       0.00000000
   7       0.00000000
   8      -0.00000000
   9       0.00000000
  10       0.00000000
  11      -0.00000000
  12      -0.00000000
  13       0.00000000
  14       0.00000000
  15       0.00000000
  16      -0.00000000
  17      -0.00000000
  18      -0.00000000
  19      -0.00000000
  20       0.00000000
  21       0.00000000
  22       0.00000000
  23       0.00000000
  24      -0.01686616
  25       0.01686616
  26      -0.00000000
  27       0.00000000
  28      -1.09830799
  29       0.00000000
  30       0.00276421
  31      -0.00276421
  32       0.00000000
  33      -0.00000000
  34       0.18000259
  35   0.00000000E+00
Ene=     8.27257E-04
Spin= Alpha
Occup=   0.0000000000
   1      10.01681227
   2      -3.47488145
   3      -0.94025505
   4       0.18833888
   5      -0.03435808
   6       0.02305251
   7      -0.00271261
   8       0.00115333
   9      -0.00002461
  10       0.00003183
  11      -0.04467425
  12      -0.00000000
  13      -0.00000000
  14       0.08246318
  15       0.00000000
  16       0.00000000
  17      -0.02125727
  18      -0.00000000
  19      -0.00000000
  20       0.01622480
  21       0.00000000
  22       0.00000000
  23      -1.71023199
  24      -1.72967424
  25      -1.72967424
  26       0.00000000
  27       0.00000000
  28      -0.00000000
  29      -1.90995876
  30      -1.86977079
  31      -1.86977079
  32      -0.00000000
  33      -0.00000000
  34       0.00000000
  35   0.00000000E+00
Ene=     9.26315E-04
Spin= Alpha
Occup=   0.0000000000
   1      -0.54397953
   2       0.17647398
   3       0.05089436
   4      -0.01463533
   5       0.00076523
   6      -0.00362882
   7       0.00119707
   8       0.00027097
   9      -0.00005280
  10       0.00001769
  11      -0.87986311
  12       0.00000000
  13       0.00000000
  14       1.63910860
  15      -0.00000000
  16      -0.00000000
  17      -0.31905932
  18       0.00000000
  19       0.00000000
  20       0.05645223
  21      -0.00000000
  22      -0.00000000
  23       0.08822909
  24       0.09255441
  25       0.09255441
  26      -0.00000000
  27      -0.00000000
  28       0.00000000
  29       0.11666763
  30       0.10823127
  31       0.10823127
  32       0.00000000
  33      -0.00000000
  34      -0.00000000
  35   0.00000000E+00
Ene=     9.42905E-04
Spin= Alpha
Occup=   0.0000000000
   1       0.00000000
   2      -0.00000000
   3      -0.00000000
   4       0.00000000
   5      -0.00000000
   6       0.00000000
   7      -0.00000000
   8      -0.00000000
   9       0.00000000
  10      -0.00000000
  11       0.00000000
  12       0.00824331
  13       0.87858653
  14      -0.00000000
  15      -0.01551699
  16      -1.65382767
  17       0.00000000
  18       0.00316035
  19       0.33683512
  20      -0.00000000
  21      -0.00052657
  22      -0.05612276
  23      -0.00000000
  24      -0.00000000
  25      -0.00000000
  26      -0.00001478
  27      -0.00157509
  28      -0.00000000
  29      -0.00000000
  30      -0.00000000
  31      -0.00000000
  32       0.00002897
  33       0.00308812
  34      -0.00000000
  35   0.00000000E+00
Ene=     9.42905E-04
Spin= Alpha
Occup=   0.0000000000
   1       0.00000000
   2      -0.00000000
   3      -0.00000000
   4       0.00000000
   5      -0.00000000
   6       0.00000000
   7      -0.00000000
   8       0.00000000
   9      -0.00000000
  10       0.00000000
  11       0.00000000
  12       0.87858653
  13      -0.00824331
  14      -0.00000000
  15      -1.65382767
  16       0.01551699
  17       0.00000000
  18       0.33683512
  19      -0.00316035
  20      -0.00000000
  21      -0.05612276
  22       0.00052657
  23      -0.00000000
  24      -0.00000000
  25      -0.00000000
  26      -0.00157509
  27       0.00001478
  28      -0.00000000
  29      -0.00000000
  30      -0.00000000
  31      -0.00000000
  32       0.00308812
  33      -0.00002897
  34       0.00000000
  35   0.00000000E+00
Ene=     1.26531E-03
Spin= Alpha
Occup=   0.0000000000
   1       0.30314956
   2      -0.06582150
   3      -0.03806834
   4       0.00704300
   5      -0.00196215
   6       0.00009880
   7      -0.00002933
   8       0.00005845
   9      -0.00001663
  10       0.00000358
  11       0.00298280
  12      -0.00000000
  13       0.00000000
  14      -0.00674044
  15       0.00000000
  16      -0.00000000
  17       0.00303711
  18      -0.00000000
  19       0.00000000
  20      -0.00058836
  21      -0.00000000
  22       0.00000000
  23      -0.65644460
  24       0.25664617
  25       0.25664617
  26      -0.00000000
  27       0.00000000
  28      -0.00000000
  29       1.16503855
  30      -0.69801685
  31      -0.69801685
  32       0.00000000
  33      -0.00000000
  34       0.00000000
  35   0.00000000E+00
Ene=     1.26806E-03
Spin= Alpha
Occup=   0.0000000000
   1       0.00000000
   2      -0.00000000
   3       0.00000000
   4      -0.00000000
   5       0.00000000
   6      -0.00000000
   7       0.00000000
   8      -0.00000000
   9       0.00000000
  10      -0.00000000
  11       0.00000000
  12       0.00224121
  13      -0.00002942
  14      -0.00000000
  15      -0.00489408
  16       0.00006424
  17       0.00000000
  18       0.00178600
  19      -0.00002344
  20      -0.00000000
  21       0.00015433
  22      -0.00000203
  23      -0.00000000
  24      -0.00000000
  25       0.00000000
  26       0.60853585
  27      -0.00798820
  28      -0.00000000
  29       0.00000000
  30       0.00000000
  31      -0.00000000
  32      -1.24235609
  33       0.01630830
  34       0.00000000
  35   0.00000000E+00
Ene=     1.26806E-03
Spin= Alpha
Occup=   0.0000000000
   1       0.00000000
   2      -0.00000000
   3      -0.00000000
   4       0.00000000
   5      -0.00000000
   6       0.00000000
   7      -0.00000000
   8       0.00000000
   9      -0.00000000
  10       0.00000000
  11       0.00000000
  12      -0.00002942
  13      -0.00224121
  14      -0.00000000
  15       0.00006424
  16       0.00489408
  17       0.00000000
  18      -0.00002344
  19      -0.00178600
  20      -0.00000000
  21      -0.00000203
  22      -0.00015433
  23      -0.00000000
  24       0.00000000
  25       0.00000000
  26      -0.00798820
  27      -0.60853585
  28      -0.00000000
  29       0.00000000
  30      -0.00000000
  31      -0.00000000
  32       0.01630830
  33       1.24235609
  34       0.00000000
  35   0.00000000E+00
Ene=     1.27600E-03
Spin= Alpha
Occup=   0.0000000000
   1      -0.00000000
   2       0.00000000
   3      -0.00000000
   4      -0.00000000
   5       0.00000000
   6      -0.00000000
   7       0.00000000
   8      -0.00000000
   9       0.00000000
  10      -0.00000000
  11      -0.00000000
  12      -0.00000000
  13       0.00000000
  14       0.00000000
  15       0.00000000
  16      -0.00000000
  17      -0.00000000
  18      -0.00000000
  19       0.00000000
  20      -0.00000000
  21      -0.00000000
  22       0.00000000
  23       0.00000000
  24       0.04758636
  25      -0.04758636
  26      -0.00000000
  27       0.00000000
  28      -0.60498240
  29      -0.00000000
  30      -0.09731437
  31       0.09731437
  32       0.00000000
  33      -0.00000000
  34       1.23719231
  35   0.00000000E+00
Ene=     1.27600E-03
Spin= Alpha
Occup=   0.0000000000
   1       0.00000000
   2      -0.00000000
   3       0.00000000
   4      -0.00000000
   5       0.00000000
   6       0.00000000
   7       0.00000000
   8       0.00000000
   9      -0.00000000
  10       0.00000000
  11       0.00000000
  12      -0.00000000
  13       0.00000000
  14      -0.00000000
  15       0.00000000
  16      -0.00000000
  17       0.00000000
  18      -0.00000000
  19       0.00000000
  20       0.00000000
  21      -0.00000000
  22      -0.00000000
  23      -0.00000000
  24      -0.52393013
  25       0.52393013
  26      -0.00000000
  27      -0.00000000
  28      -0.05494800
  29       0.00000000
  30       1.07143997
  31      -1.07143997
  32       0.00000000
  33       0.00000000
  34       0.11236896
  35   0.00000000E+00
Ene=     1.79627E-03
Spin= Alpha
Occup=   0.0000000000
   1     -10.17696802
   2      -0.42901121
   3       2.14845079
   4      -0.30769947
   5       0.10263021
   6      -0.00549736
   7       0.00841936
   8      -0.00182251
   9       0.00095159
  10      -0.00012597
  11       0.01064497
  12       0.00000000
  13       0.00000000
  14      -0.02236565
  15      -0.00000000
  16      -0.00000000
  17       0.00227451
  18       0.00000000
  19       0.00000000
  20       0.02384704
  21      -0.00000000
  22       0.00000000
  23       1.51476232
  24       1.52826111
  25       1.52826111
  26      -0.00000000
  27      -0.00000000
  28      -0.00000000
  29       3.32457532
  30       3.29761320
  31       3.29761320
  32       0.00000000
  33       0.00000000
  34       0.00000000
  35   0.00000000E+00
Ene=     3.02527E-03
Spin= Alpha
Occup=   0.0000000000
   1       0.35217971
   2       0.16852819
   3      -0.20456438
   4       0.01832392
   5      -0.00899356
   6      -0.00235463
   7       0.00177219
   8       0.00075883
   9      -0.00011817
  10       0.00004210
  11       0.47052490
  12      -0.00000000
  13      -0.00000000
  14      -1.35706149
  15       0.00000000
  16       0.00000000
  17       1.73982812
  18      -0.00000000
  19      -0.00000000
  20      -0.23888854
  21       0.00000000
  22       0.00000000
  23      -0.04996334
  24      -0.05096776
  25      -0.05096776
  26       0.00000000
  27      -0.00000000
  28       0.00000000
  29      -0.14773230
  30      -0.14567759
  31      -0.14567759
  32      -0.00000000
  33      -0.00000000
  34      -0.00000000
  35   0.00000000E+00
Ene=     3.10862E-03
Spin= Alpha
Occup=   0.0000000000
   1      -0.00000000
   2      -0.00000000
   3       0.00000000
   4      -0.00000000
   5       0.00000000
   6      -0.00000000
   7      -0.00000000
   8      -0.00000000
   9       0.00000000
  10      -0.00000000
  11      -0.00000000
  12      -0.00084049
  13      -0.46584218
  14       0.00000000
  15       0.00243422
  16       1.34916422
  17      -0.00000000
  18      -0.00317275
  19      -1.75849444
  20       0.00000000
  21       0.00047197
  22       0.26158714
  23       0.00000000
  24       0.00000000
  25       0.00000000
  26       0.00000089
  27       0.00049311
  28       0.00000000
  29       0.00000000
  30       0.00000000
  31       0.00000000
  32      -0.00000181
  33      -0.00100327
  34      -0.00000000
  35   0.00000000E+00
Ene=     3.10862E-03
Spin= Alpha
Occup=   0.0000000000
   1      -0.00000000
   2      -0.00000000
   3       0.00000000
   4      -0.00000000
   5       0.00000000
   6      -0.00000000
   7      -0.00000000
   8      -0.00000000
   9       0.00000000
  10      -0.00000000
  11      -0.00000000
  12      -0.46584218
  13       0.00084049
  14       0.00000000
  15       1.34916422
  16      -0.00243422
  17      -0.00000000
  18      -1.75849444
  19       0.00317275
  20       0.00000000
  21       0.26158714
  22      -0.00047197
  23       0.00000000
  24       0.00000000
  25       0.00000000
  26       0.00049311
  27      -0.00000089
  28       0.00000000
  29       0.00000000
  30       0.00000000
  31       0.00000000
  32      -0.00100327
  33       0.00000181
  34      -0.00000000
  35   0.00000000E+00
Ene=     3.90939E-03
Spin= Alpha
Occup=   0.0000000000
   1      -7.63185410
   2      -5.03519993
   3       6.25298171
   4      -1.07686157
   5       0.18881596
   6      -0.09689797
   7       0.01449326
   8      -0.00541605
   9       0.00050447
  10      -0.00018161
  11       0.02334719
  12       0.00000000
  13       0.00000000
  14      -0.07322095
  15      -0.00000000
  16      -0.00000000
  17       0.12606286
  18       0.00000000
  19       0.00000000
  20      -0.07832927
  21      -0.00000000
  22      -0.00000000
  23       1.08878026
  24       1.08699761
  25       1.08699761
  26      -0.00000000
  27      -0.00000000
  28      -0.00000000
  29       3.40919428
  30       3.41271016
  31       3.41271016
  32       0.00000000
  33       0.00000000
  34       0.00000000
  35   0.00000000E+00
Ene=     9.40481E-03
Spin= Alpha
Occup=   0.0000000000
   1      -3.47865817
   2      -3.29018426
   3       4.91282241
   4      -2.80802188
   5       0.65154129
   6      -0.11718035
   7       0.05805642
   8      -0.00740955
   9       0.00373579
  10      -0.00042717
  11      -0.15510035
  12       0.00000000
  13      -0.00000000
  14       0.48092049
  15      -0.00000000
  16       0.00000000
  17      -0.95898790
  18       0.00000000
  19      -0.00000000
  20       1.03645931
  21      -0.00000000
  22      -0.00000000
  23       0.49416455
  24       0.49426756
  25       0.49426756
  26      -0.00000000
  27      -0.00000000
  28       0.00000000
  29       1.69913424
  30       1.69893590
  31       1.69893590
  32       0.00000000
  33       0.00000000
  34      -0.00000000
  35   0.00000000E+00
Ene=     1.03031E-02
Spin= Alpha
Occup=   0.0000000000
   1       0.00000000
   2       0.00000000
   3      -0.00000000
   4       0.00000000
   5      -0.00000000
   6       0.00000000
   7      -0.00000000
   8       0.00000000
   9      -0.00000000
  10       0.00000000
  11      -0.00000000
  12      -0.00096592
  13       0.22469743
  14       0.00000000
  15       0.00298589
  16      -0.69459538
  17      -0.00000000
  18      -0.00597494
  19       1.38992451
  20       0.00000000
  21       0.00663250
  22      -1.54288883
  23      -0.00000000
  24      -0.00000000
  25      -0.00000000
  26      -0.00000087
  27       0.00020196
  28      -0.00000000
  29      -0.00000000
  30      -0.00000000
  31      -0.00000000
  32       0.00000174
  33      -0.00040441
  34       0.00000000
  35   0.00000000E+00
Ene=     1.03031E-02
Spin= Alpha
Occup=   0.0000000000
   1       0.00000000
   2       0.00000000
   3      -0.00000000
   4       0.00000000
   5      -0.00000000
   6       0.00000000
   7      -0.00000000
   8       0.00000000
   9      -0.00000000
  10       0.00000000
  11      -0.00000000
  12       0.22469743
  13       0.00096592
  14       0.00000000
  15      -0.69459538
  16      -0.00298589
  17      -0.00000000
  18       1.38992451
  19       0.00597494
  20       0.00000000
  21      -1.54288883
  22      -0.00663250
  23      -0.00000000
  24      -0.00000000
  25      -0.00000000
  26       0.00020196
  27       0.00000087
  28      -0.00000000
  29      -0.00000000
  30      -0.00000000
  31      -0.00000000
  32      -0.00040441
  33      -0.00000174
  34      -0.00000000
  35   0.00000000E+00
Ene=     1.06754E-02
Spin= Alpha
Occup=   0.0000000000
   1       3.04381420
   2       2.91341576
   3      -4.43111298
   4       2.78144768
   5      -0.79869696
   6       0.06725057
   7      -0.03533030
   8       0.01716263
   9      -0.00553037
  10       0.00098604
  11      -0.16802323
  12      -0.00000000
  13      -0.00000000
  14       0.51757544
  15       0.00000000
  16       0.00000000
  17      -1.02999265
  18      -0.00000000
  19      -0.00000000
  20       1.13728654
  21       0.00000000
  22       0.00000000
  23      -0.43275453
  24      -0.43286208
  25      -0.43286208
  26       0.00000000
  27       0.00000000
  28       0.00000000
  29      -1.48989318
  30      -1.48968017
  31      -1.48968017
  32      -0.00000000
  33      -0.00000000
  34       0.00000000
  35   0.00000000E+00
Ene=     3.01634E-02
Spin= Alpha
Occup=   0.0000000000
   1      -2.49788441
   2      -2.42087508
   3       3.98765909
   4      -3.89368185
   5       3.61791331
   6      -1.27105573
   7       0.22965235
   8      -0.06928682
   9       0.01207831
  10      -0.00272207
  11      -0.01660719
  12      -0.00000000
  13      -0.00000000
  14       0.04948722
  15      -0.00000000
  16       0.00000000
  17      -0.09620307
  18       0.00000000
  19      -0.00000000
  20       0.11514412
  21       0.00000000
  22       0.00000000
  23       0.35739312
  24       0.35756812
  25       0.35756812
  26      -0.00000000
  27      -0.00000000
  28       0.00000000
  29       1.21792384
  30       1.21757432
  31       1.21757432
  32       0.00000000
  33       0.00000000
  34      -0.00000000
  35   0.00000000E+00
Ene=     1.03225E-01
Spin= Alpha
Occup=   0.0000000000
   1      -1.26127958
   2      -1.18242094
   3       1.97358418
   4      -2.12126522
   5       3.05585042
   6      -3.39229737
   7       1.28724319
   8      -0.26570147
   9       0.08771949
  10      -0.01318694
  11       0.00901629
  12       0.00000000
  13       0.00000000
  14      -0.02652257
  15      -0.00000000
  16      -0.00000000
  17       0.05083829
  18       0.00000000
  19       0.00000000
  20      -0.06213113
  21      -0.00000000
  22      -0.00000000
  23       0.18146335
  24       0.18128246
  25       0.18128246
  26      -0.00000000
  27      -0.00000000
  28      -0.00000000
  29       0.60644844
  30       0.60680889
  31       0.60680889
  32       0.00000000
  33       0.00000000
  34      -0.00000000
  35   0.00000000E+00
Ene=     3.04001E-01
Spin= Alpha
Occup=   0.0000000000
   1      -0.68591995
   2      -0.63281010
   3       1.05556913
   4      -1.13262644
   5       1.76876145
   6      -2.86035237
   7       3.30299389
   8      -1.22750790
   9       0.19818233
  10      -0.04336110
  11      -0.00115191
  12       0.00000000
  13       0.00000000
  14       0.00337332
  15      -0.00000000
  16      -0.00000000
  17      -0.00641573
  18       0.00000000
  19       0.00000000
  20       0.00778133
  21      -0.00000000
  22      -0.00000000
  23       0.09876704
  24       0.09878317
  25       0.09878317
  26      -0.00000000
  27      -0.00000000
  28      -0.00000000
  29       0.32806855
  30       0.32803645
  31       0.32803645
  32       0.00000000
  33       0.00000000
  34      -0.00000000
  35   0.00000000E+00
Ene=     9.84449E-01
Spin= Alpha
Occup=   0.0000000000
   1       0.37700731
   2       0.34495681
   3      -0.57449467
   4       0.60936320
   5      -0.94716246
   6       1.65259770
   7      -2.79222649
   8       3.25881506
   9      -1.17692260
  10       0.13084208
  11       0.00044382
  12      -0.00000000
  13      -0.00000000
  14      -0.00129906
  15       0.00000000
  16       0.00000000
  17       0.00247337
  18      -0.00000000
  19      -0.00000000
  20      -0.00303127
  21       0.00000000
  22       0.00000000
  23      -0.05432500
  24      -0.05433400
  25      -0.05433400
  26       0.00000000
  27       0.00000000
  28      -0.00000000
  29      -0.17981078
  30      -0.17979287
  31      -0.17979287
  32      -0.00000000
  33      -0.00000000
  34      -0.00000000
  35   0.00000000E+00
Ene=     3.01029E+00
Spin= Alpha
Occup=   0.0000000000
   1      -0.20161882
   2      -0.18390066
   3       0.30602235
   4      -0.32260888
   5       0.49605275
   6      -0.86001801
   7       1.54747848
   8      -2.59083454
   9       2.93519158
  10      -0.81652543
  11      -0.00006173
  12       0.00000000
  13       0.00000000
  14       0.00018065
  15      -0.00000000
  16      -0.00000000
  17      -0.00034399
  18       0.00000000
  19       0.00000000
  20       0.00042262
  21      -0.00000000
  22      -0.00000000
  23       0.02906201
  24       0.02906342
  25       0.02906342
  26       0.00000000
  27      -0.00000000
  28       0.00000000
  29       0.09605508
  30       0.09605227
  31       0.09605227
  32       0.00000000
  33       0.00000000
  34       0.00000000
  35   0.00000000E+00
Ene=     1.08190E+01
Spin= Alpha
Occup=   0.0000000000
   1      -0.10648265
   2      -0.09699208
   3       0.16133418
   4      -0.16953937
   5       0.25881120
   6      -0.44241541
   7       0.78355531
   8      -1.37387380
   9       2.13540835
  10      -1.97552718
  11      -0.00000798
  12       0.00000000
  13       0.00000000
  14       0.00002334
  15      -0.00000000
  16      -0.00000000
  17      -0.00004443
  18       0.00000000
  19       0.00000000
  20       0.00005460
  21      -0.00000000
  22      -0.00000000
  23       0.01535076
  24       0.01535095
  25       0.01535095
  26       0.00000000
  27      -0.00000000
  28      -0.00000000
  29       0.05070669
  30       0.05070633
  31       0.05070633
  32      -0.00000000
  33       0.00000000
  34      -0.00000000
  35   0.00000000E+00
