[Molden Format]
[Atoms] AU
BE       1       4     0.00000000     0.00000000     0.00000000
BE       2       4     4.54000000     0.00000000     0.00000000
[GTO]
  1 0
s  6 1.00
   1.6828000000E+03   2.2857400000E-03
   2.5171500000E+02   1.7593800000E-02
   5.7411600000E+01   8.6331500000E-02
   1.6517100000E+01   2.8183500000E-01
   4.8536400000E+00   6.4059400000E-01
   6.2686300000E-01   1.4446700000E-01
s  3 1.00
   8.3093800000E+00   1.0862100000E-01
   1.7407500000E+00   9.2730100000E-01
   4.8581600000E-01  -2.9716900000E-03
p  3 1.00
   8.3093800000E+00   3.6134400000E-02
   1.7407500000E+00   2.1695800000E-01
   4.8581600000E-01   8.4183900000E-01
s  1 1.00
   1.6361300000E-01   1.0000000000E+00
p  1 1.00
   1.6361300000E-01   1.0000000000E+00
s  1 1.00
   5.6728500000E-02   1.0000000000E+00
p  1 1.00
   5.6728500000E-02   1.0000000000E+00
s  1 1.00
   2.0700000000E-02   1.0000000000E+00
p  1 1.00
   2.0700000000E-02   1.0000000000E+00
d  1 1.00
   2.5500000000E-01   1.0000000000E+00
 
  2 0
s  6 1.00
   1.6828000000E+03   2.2857400000E-03
   2.5171500000E+02   1.7593800000E-02
   5.7411600000E+01   8.6331500000E-02
   1.6517100000E+01   2.8183500000E-01
   4.8536400000E+00   6.4059400000E-01
   6.2686300000E-01   1.4446700000E-01
s  3 1.00
   8.3093800000E+00   1.0862100000E-01
   1.7407500000E+00   9.2730100000E-01
   4.8581600000E-01  -2.9716900000E-03
p  3 1.00
   8.3093800000E+00   3.6134400000E-02
   1.7407500000E+00   2.1695800000E-01
   4.8581600000E-01   8.4183900000E-01
s  1 1.00
   1.6361300000E-01   1.0000000000E+00
p  1 1.00
   1.6361300000E-01   1.0000000000E+00
s  1 1.00
   5.6728500000E-02   1.0000000000E+00
p  1 1.00
   5.6728500000E-02   1.0000000000E+00
s  1 1.00
   2.0700000000E-02   1.0000000000E+00
p  1 1.00
   2.0700000000E-02   1.0000000000E+00
d  1 1.00
   2.5500000000E-01   1.0000000000E+00
 
 
[MO]
Ene=    -4.11527E+00
Spin= Alpha
Occup=   2.0000000000
   1       0.00051993
   2       0.00041949
   3      -0.00009657
   4       0.00000000
   5      -0.00000000
   6       0.00020164
   7       0.00128808
   8      -0.00000000
   9       0.00000000
  10      -0.00276413
  11      -0.00144492
  12       0.00000000
  13      -0.00000000
  14       0.00822396
  15       0.00259267
  16      -0.00000000
  17       0.00000000
  18       0.00117636
  19       0.00003763
  20       0.00003763
  21      -0.00000000
  22      -0.00000000
  23      -0.00000000
  24       0.59616917
  25       0.43480929
  26       0.00020027
  27      -0.00000000
  28       0.00000000
  29       0.03434128
  30       0.00092526
  31       0.00000000
  32      -0.00000000
  33       0.00534896
  34      -0.00142789
  35      -0.00000000
  36       0.00000000
  37      -0.00931795
  38       0.00291834
  39       0.00000000
  40      -0.00000000
  41      -0.01320070
  42      -0.01259498
  43      -0.01259498
  44      -0.00000000
  45       0.00000000
  46      -0.00000000
Ene=    -4.08744E+00
Spin= Alpha
Occup=   2.0000000000
   1      -0.59583503
   2      -0.43481486
   3      -0.00017293
   4      -0.00000000
   5      -0.00000000
   6      -0.03547010
   7       0.00125545
   8       0.00000000
   9       0.00000000
  10      -0.00532518
  11      -0.00163022
  12      -0.00000000
  13      -0.00000000
  14       0.00918559
  15       0.00294975
  16       0.00000000
  17       0.00000000
  18       0.01357896
  19       0.01292302
  20       0.01292302
  21       0.00000000
  22       0.00000000
  23      -0.00000000
  24       0.00058767
  25       0.00038701
  26      -0.00010277
  27       0.00000000
  28      -0.00000000
  29      -0.00014402
  30       0.00139180
  31      -0.00000000
  32      -0.00000000
  33       0.00282815
  34      -0.00149614
  35       0.00000000
  36      -0.00000000
  37      -0.00813006
  38       0.00254627
  39      -0.00000000
  40      -0.00000000
  41      -0.00127225
  42      -0.00005807
  43      -0.00005807
  44       0.00000000
  45      -0.00000000
  46       0.00000000
Ene=    -3.13524E-01
Spin= Alpha
Occup=   2.0000000000
   1       0.08292800
   2       0.12294263
   3      -0.06269800
   4      -0.00000000
   5      -0.00000000
   6      -0.40473364
   7      -0.09212771
   8       0.00000000
   9      -0.00000000
  10      -0.16230158
  11      -0.01024821
  12      -0.00000000
  13      -0.00000000
  14       0.08756625
  15       0.02136388
  16       0.00000000
  17       0.00000000
  18      -0.01515769
  19       0.01034244
  20       0.01034244
  21      -0.00000000
  22      -0.00000000
  23      -0.00000000
  24       0.08831334
  25       0.13129080
  26       0.06253408
  27      -0.00000000
  28      -0.00000000
  29      -0.44251844
  30       0.09008775
  31       0.00000000
  32      -0.00000000
  33      -0.15694975
  34       0.02344957
  35       0.00000000
  36      -0.00000000
  37      -0.16618356
  38       0.03613533
  39      -0.00000000
  40       0.00000000
  41      -0.01325598
  42       0.01190124
  43       0.01190124
  44       0.00000000
  45       0.00000000
  46       0.00000000
Ene=    -2.02778E-01
Spin= Alpha
Occup=   2.0000000000
   1       0.08116194
   2       0.12462467
   3       0.04776388
   4      -0.00000000
   5      -0.00000000
   6      -0.40052924
   7       0.07631822
   8       0.00000000
   9      -0.00000000
  10      -0.54456135
  11      -0.05673059
  12      -0.00000000
  13       0.00000000
  14       0.90647255
  15       0.31551092
  16       0.00000000
  17       0.00000000
  18       0.01064953
  19       0.00733367
  20       0.00733367
  21       0.00000000
  22      -0.00000000
  23      -0.00000000
  24      -0.07538572
  25      -0.11368601
  26       0.07286349
  27       0.00000000
  28       0.00000000
  29       0.40843523
  30       0.13327536
  31       0.00000000
  32      -0.00000000
  33       0.32805708
  34      -0.12307614
  35      -0.00000000
  36       0.00000000
  37      -0.60008630
  38       0.57260918
  39       0.00000000
  40      -0.00000000
  41      -0.00581953
  42       0.00220802
  43       0.00220802
  44      -0.00000000
  45      -0.00000000
  46      -0.00000000
Ene=    -1.54176E-01
Spin= Alpha
Occup=   0.0000000000
   1      -0.00000000
   2      -0.00000000
   3      -0.00000000
   4       0.01818177
   5      -0.00212010
   6       0.00000000
   7      -0.00000000
   8       0.10039385
   9      -0.01170649
  10      -0.00000000
  11      -0.00000000
  12      -0.06737893
  13       0.00785676
  14       0.00000000
  15       0.00000000
  16      -0.36341903
  17       0.04237670
  18       0.00000000
  19       0.00000000
  20       0.00000000
  21       0.01274928
  22      -0.00148664
  23       0.00000000
  24       0.00000000
  25       0.00000000
  26      -0.00000000
  27       0.01735311
  28      -0.00202347
  29      -0.00000000
  30       0.00000000
  31       0.24706624
  32      -0.02880931
  33      -0.00000000
  34      -0.00000000
  35      -0.62658894
  36       0.07306379
  37      -0.00000000
  38       0.00000000
  39       1.61906943
  40      -0.18879259
  41       0.00000000
  42       0.00000000
  43       0.00000000
  44      -0.00295533
  45       0.00034461
  46      -0.00000000
Ene=    -1.54176E-01
Spin= Alpha
Occup=   0.0000000000
   1      -0.00000000
   2      -0.00000000
   3      -0.00000000
   4      -0.00212010
   5      -0.01818177
   6       0.00000000
   7      -0.00000000
   8      -0.01170649
   9      -0.10039385
  10      -0.00000000
  11      -0.00000000
  12       0.00785676
  13       0.06737893
  14       0.00000000
  15       0.00000000
  16       0.04237670
  17       0.36341903
  18       0.00000000
  19       0.00000000
  20       0.00000000
  21      -0.00148664
  22      -0.01274928
  23       0.00000000
  24       0.00000000
  25       0.00000000
  26      -0.00000000
  27      -0.00202347
  28      -0.01735311
  29      -0.00000000
  30       0.00000000
  31      -0.02880931
  32      -0.24706624
  33       0.00000000
  34      -0.00000000
  35       0.07306379
  36       0.62658894
  37      -0.00000000
  38       0.00000000
  39      -0.18879259
  40      -1.61906943
  41       0.00000000
  42       0.00000000
  43       0.00000000
  44       0.00034461
  45       0.00295533
  46      -0.00000000
Ene=    -1.50856E-01
Spin= Alpha
Occup=   0.0000000000
   1      -0.02810210
   2      -0.03744176
   3      -0.05292223
   4      -0.00000000
   5       0.00000000
   6       0.22482499
   7      -0.07875242
   8      -0.00000000
   9       0.00000000
  10      -0.92837477
  11      -0.44181508
  12       0.00000000
  13      -0.00000000
  14      10.07521618
  15       3.16860899
  16       0.00000000
  17      -0.00000000
  18       0.01016728
  19       0.02584049
  20       0.02584049
  21      -0.00000000
  22       0.00000000
  23      -0.00000000
  24       0.03059512
  25       0.04792072
  26      -0.01005213
  27      -0.00000000
  28       0.00000000
  29      -0.19952796
  30       0.16142862
  31      -0.00000000
  32       0.00000000
  33       0.47547103
  34      -0.89977017
  35       0.00000000
  36      -0.00000000
  37      -9.12047406
  38       4.54159649
  39      -0.00000000
  40       0.00000000
  41       0.01998120
  42      -0.00394941
  43      -0.00394941
  44       0.00000000
  45      -0.00000000
  46       0.00000000
Ene=    -1.22220E-01
Spin= Alpha
Occup=   0.0000000000
   1      -0.00206772
   2       0.00157051
   3      -0.08247257
   4      -0.00000000
   5       0.00000000
   6       0.03437912
   7      -0.08524073
   8      -0.00000000
   9      -0.00000000
  10       0.45631294
  11       0.18462765
  12       0.00000000
  13       0.00000000
  14     -12.02018264
  15      -4.00434887
  16      -0.00000000
  17      -0.00000000
  18       0.01542772
  19       0.01786838
  20       0.01786838
  21      -0.00000000
  22       0.00000000
  23       0.00000000
  24       0.01076253
  25       0.03700996
  26       0.07177433
  27      -0.00000000
  28       0.00000000
  29       0.23312149
  30       0.08351462
  31      -0.00000000
  32       0.00000000
  33      -2.20168268
  34       0.45759272
  35      -0.00000000
  36      -0.00000000
  37      13.58574656
  38      -4.81093517
  39       0.00000000
  40       0.00000000
  41       0.04912597
  42       0.09572801
  43       0.09572801
  44       0.00000000
  45       0.00000000
  46      -0.00000000
Ene=    -9.79539E-02
Spin= Alpha
Occup=   0.0000000000
   1      -0.01492240
   2      -0.03522166
   3      -0.09887591
   4      -0.00000000
   5      -0.00000000
   6      -0.10945153
   7      -0.28310776
   8      -0.00000000
   9      -0.00000000
  10       1.43326536
  11       0.47701277
  12       0.00000000
  13       0.00000000
  14      -4.38049799
  15      -2.52758934
  16      -0.00000000
  17      -0.00000000
  18      -0.03710652
  19      -0.05536046
  20      -0.05536046
  21      -0.00000000
  22      -0.00000000
  23      -0.00000000
  24      -0.02454669
  25      -0.04686069
  26       0.12902939
  27      -0.00000000
  28      -0.00000000
  29       0.01973767
  30       0.20412017
  31      -0.00000000
  32      -0.00000000
  33       0.42357269
  34       0.40568141
  35      -0.00000000
  36      -0.00000000
  37       3.57400300
  38      -0.78280155
  39       0.00000000
  40       0.00000000
  41      -0.03749403
  42      -0.03572991
  43      -0.03572991
  44       0.00000000
  45       0.00000000
  46      -0.00000000
Ene=    -9.33248E-02
Spin= Alpha
Occup=   0.0000000000
   1      -0.00000000
   2      -0.00000000
   3      -0.00000000
   4       0.14993507
   5      -0.00004209
   6      -0.00000000
   7      -0.00000000
   8       0.26205319
   9      -0.00007357
  10       0.00000000
  11      -0.00000000
  12       0.08405818
  13      -0.00002360
  14      -0.00000000
  15      -0.00000000
  16       0.82558903
  17      -0.00023177
  18      -0.00000000
  19      -0.00000000
  20      -0.00000000
  21       0.01403477
  22      -0.00000394
  23       0.00000000
  24      -0.00000000
  25      -0.00000000
  26       0.00000000
  27       0.16785703
  28      -0.00004712
  29       0.00000000
  30       0.00000000
  31       0.11957187
  32      -0.00003357
  33       0.00000000
  34       0.00000000
  35       0.68110649
  36      -0.00019121
  37       0.00000000
  38      -0.00000000
  39      -1.11922242
  40       0.00031421
  41      -0.00000000
  42      -0.00000000
  43      -0.00000000
  44      -0.02563596
  45       0.00000720
  46       0.00000000
Ene=    -9.33248E-02
Spin= Alpha
Occup=   0.0000000000
   1       0.00000000
   2       0.00000000
   3       0.00000000
   4      -0.00004209
   5      -0.14993507
   6      -0.00000000
   7       0.00000000
   8      -0.00007357
   9      -0.26205319
  10      -0.00000000
  11      -0.00000000
  12      -0.00002360
  13      -0.08405818
  14      -0.00000000
  15       0.00000000
  16      -0.00023177
  17      -0.82558903
  18       0.00000000
  19       0.00000000
  20      -0.00000000
  21      -0.00000394
  22      -0.01403477
  23      -0.00000000
  24       0.00000000
  25       0.00000000
  26      -0.00000000
  27      -0.00004712
  28      -0.16785703
  29      -0.00000000
  30      -0.00000000
  31      -0.00003357
  32      -0.11957187
  33      -0.00000000
  34      -0.00000000
  35      -0.00019121
  36      -0.68110649
  37       0.00000000
  38      -0.00000000
  39       0.00031421
  40       1.11922242
  41       0.00000000
  42       0.00000000
  43       0.00000000
  44       0.00000720
  45       0.02563596
  46      -0.00000000
Ene=    -8.16636E-02
Spin= Alpha
Occup=   0.0000000000
   1      -0.01195484
   2      -0.01073720
   3      -0.13776527
   4      -0.00000000
   5      -0.00000000
   6       0.21341601
   7      -0.08368980
   8      -0.00000000
   9       0.00000000
  10      -1.07830519
  11      -0.85427520
  12      -0.00000000
  13      -0.00000000
  14      11.29226252
  15       5.04038933
  16       0.00000000
  17       0.00000000
  18      -0.00660632
  19       0.04898383
  20       0.04898383
  21      -0.00000000
  22      -0.00000000
  23      -0.00000000
  24      -0.01552093
  25      -0.03263414
  26       0.15431054
  27      -0.00000000
  28      -0.00000000
  29      -0.03400860
  30       0.08240645
  31      -0.00000000
  32      -0.00000000
  33       1.46540678
  34       0.25206130
  35      -0.00000000
  36      -0.00000000
  37     -11.99508722
  38       2.88151986
  39      -0.00000000
  40      -0.00000000
  41      -0.04017900
  42      -0.03219817
  43      -0.03219817
  44       0.00000000
  45       0.00000000
  46      -0.00000000
Ene=    -6.42464E-02
Spin= Alpha
Occup=   0.0000000000
   1       0.00000000
   2       0.00000000
   3      -0.00000000
   4       0.04904565
   5       0.00042315
   6       0.00000000
   7      -0.00000000
   8      -0.12486507
   9      -0.00107729
  10      -0.00000000
  11      -0.00000000
  12       0.67105189
  13       0.00578960
  14       0.00000000
  15       0.00000000
  16      -1.83996528
  17      -0.01587456
  18       0.00000000
  19       0.00000000
  20       0.00000000
  21       0.02038014
  22       0.00017583
  23       0.00000000
  24      -0.00000000
  25      -0.00000000
  26       0.00000000
  27       0.12547965
  28       0.00108259
  29      -0.00000000
  30      -0.00000000
  31       0.17474372
  32       0.00150763
  33       0.00000000
  34       0.00000000
  35       0.17798961
  36       0.00153563
  37      -0.00000000
  38       0.00000000
  39       0.87672951
  40       0.00756411
  41      -0.00000000
  42      -0.00000000
  43      -0.00000000
  44       0.00315515
  45       0.00002722
  46       0.00000000
Ene=    -6.42464E-02
Spin= Alpha
Occup=   0.0000000000
   1      -0.00000000
   2      -0.00000000
   3      -0.00000000
   4      -0.00042315
   5       0.04904565
   6      -0.00000000
   7       0.00000000
   8       0.00107729
   9      -0.12486507
  10       0.00000000
  11      -0.00000000
  12      -0.00578960
  13       0.67105189
  14      -0.00000000
  15      -0.00000000
  16       0.01587456
  17      -1.83996528
  18      -0.00000000
  19      -0.00000000
  20      -0.00000000
  21      -0.00017583
  22       0.02038014
  23      -0.00000000
  24       0.00000000
  25       0.00000000
  26       0.00000000
  27      -0.00108259
  28       0.12547965
  29       0.00000000
  30       0.00000000
  31      -0.00150763
  32       0.17474372
  33      -0.00000000
  34      -0.00000000
  35      -0.00153563
  36       0.17798961
  37       0.00000000
  38      -0.00000000
  39      -0.00756411
  40       0.87672951
  41      -0.00000000
  42       0.00000000
  43       0.00000000
  44      -0.00002722
  45       0.00315515
  46       0.00000000
Ene=    -2.75876E-02
Spin= Alpha
Occup=   0.0000000000
   1       0.03383747
   2       0.06600773
   3       0.06470984
   4       0.00000000
   5      -0.00000000
   6      -0.00823283
   7      -0.09186173
   8       0.00000000
   9      -0.00000000
  10      -1.85929358
  11       0.50932138
  12       0.00000000
  13      -0.00000000
  14      14.85110713
  15       3.88015567
  16       0.00000000
  17       0.00000000
  18       0.04260481
  19       0.05743628
  20       0.05743628
  21      -0.00000000
  22       0.00000000
  23      -0.00000000
  24      -0.01374532
  25      -0.02731580
  26      -0.00003789
  27      -0.00000000
  28       0.00000000
  29      -0.03872482
  30      -0.05194526
  31      -0.00000000
  32       0.00000000
  33       1.00762972
  34       0.05093538
  35      -0.00000000
  36       0.00000000
  37     -13.84883382
  38       4.47875657
  39       0.00000000
  40      -0.00000000
  41      -0.00980446
  42      -0.03128283
  43      -0.03128283
  44      -0.00000000
  45       0.00000000
  46      -0.00000000
Ene=    -1.40416E-02
Spin= Alpha
Occup=   0.0000000000
   1      -0.00000000
   2      -0.00000000
   3      -0.00000000
   4       0.22069120
   5       0.00271570
   6       0.00000000
   7       0.00000000
   8       0.22349300
   9       0.00275018
  10       0.00000000
  11      -0.00000000
  12       0.99590533
  13       0.01225506
  14      -0.00000000
  15      -0.00000000
  16      -1.08393389
  17      -0.01333829
  18      -0.00000000
  19      -0.00000000
  20      -0.00000000
  21      -0.00959059
  22      -0.00011802
  23       0.00000000
  24       0.00000000
  25       0.00000000
  26       0.00000000
  27      -0.18237460
  28      -0.00224420
  29       0.00000000
  30       0.00000000
  31      -0.16768399
  32      -0.00206343
  33      -0.00000000
  34       0.00000000
  35      -0.84714863
  36      -0.01042455
  37       0.00000000
  38      -0.00000000
  39       0.89849525
  40       0.01105639
  41       0.00000000
  42       0.00000000
  43       0.00000000
  44      -0.02002923
  45      -0.00024647
  46      -0.00000000
Ene=    -1.40416E-02
Spin= Alpha
Occup=   0.0000000000
   1      -0.00000000
   2      -0.00000000
   3      -0.00000000
   4       0.00271570
   5      -0.22069120
   6       0.00000000
   7       0.00000000
   8       0.00275018
   9      -0.22349300
  10       0.00000000
  11      -0.00000000
  12       0.01225506
  13      -0.99590533
  14      -0.00000000
  15      -0.00000000
  16      -0.01333829
  17       1.08393389
  18      -0.00000000
  19      -0.00000000
  20      -0.00000000
  21      -0.00011802
  22       0.00959059
  23      -0.00000000
  24       0.00000000
  25       0.00000000
  26      -0.00000000
  27      -0.00224420
  28       0.18237460
  29       0.00000000
  30       0.00000000
  31      -0.00206343
  32       0.16768399
  33      -0.00000000
  34      -0.00000000
  35      -0.01042455
  36       0.84714863
  37       0.00000000
  38      -0.00000000
  39       0.01105639
  40      -0.89849525
  41       0.00000000
  42       0.00000000
  43       0.00000000
  44      -0.00024647
  45       0.02002923
  46       0.00000000
Ene=     7.65489E-02
Spin= Alpha
Occup=   0.0000000000
   1       0.04281611
   2       0.07369912
   3      -0.14354786
   4       0.00000000
   5      -0.00000000
   6      -0.14421986
   7      -0.09811513
   8       0.00000000
   9      -0.00000000
  10      -3.00420674
  11      -2.48809742
  12      -0.00000000
  13       0.00000000
  14       1.50187122
  15       0.82465686
  16      -0.00000000
  17      -0.00000000
  18       0.06410745
  19       0.00684551
  20       0.00684551
  21       0.00000000
  22      -0.00000000
  23       0.00000000
  24      -0.05028736
  25      -0.08353942
  26      -0.12403593
  27      -0.00000000
  28       0.00000000
  29       0.21525963
  30       0.03306803
  31      -0.00000000
  32       0.00000000
  33       2.91354213
  34      -2.68919624
  35      -0.00000000
  36      -0.00000000
  37      -1.46985966
  38       0.97488304
  39       0.00000000
  40       0.00000000
  41      -0.05897703
  42       0.00084221
  43       0.00084221
  44      -0.00000000
  45       0.00000000
  46      -0.00000000
Ene=     1.58188E-01
Spin= Alpha
Occup=   0.0000000000
   1       0.00202168
   2      -0.00645461
   3      -0.07716836
   4      -0.00000000
   5      -0.00000000
   6      -0.34791694
   7      -0.59092059
   8      -0.00000000
   9      -0.00000000
  10       0.39838210
  11       1.35467792
  12       0.00000000
  13       0.00000000
  14      -0.83268895
  15      -1.02774877
  16      -0.00000000
  17      -0.00000000
  18      -0.10619567
  19      -0.01720546
  20      -0.01720546
  21      -0.00000000
  22       0.00000000
  23       0.00000000
  24       0.01044831
  25       0.00920976
  26       0.14126374
  27      -0.00000000
  28       0.00000000
  29      -0.38085971
  30       0.78217398
  31      -0.00000000
  32       0.00000000
  33       0.16864110
  34      -1.44131448
  35       0.00000000
  36      -0.00000000
  37       0.87630835
  38       0.52660065
  39      -0.00000000
  40       0.00000000
  41      -0.07999128
  42      -0.01884919
  43      -0.01884919
  44       0.00000000
  45       0.00000000
  46       0.00000000
Ene=     1.73886E-01
Spin= Alpha
Occup=   0.0000000000
   1      -0.00000000
   2      -0.00000000
   3       0.00000000
   4       0.07963120
   5       0.00158660
   6      -0.00000000
   7       0.00000000
   8       0.45483323
   9       0.00906228
  10       0.00000000
  11       0.00000000
  12      -0.44155686
  13      -0.00879776
  14      -0.00000000
  15      -0.00000000
  16       0.07346385
  17       0.00146372
  18      -0.00000000
  19       0.00000000
  20       0.00000000
  21       0.04921490
  22       0.00098058
  23       0.00000000
  24      -0.00000000
  25      -0.00000000
  26       0.00000000
  27       0.21828625
  28       0.00434922
  29       0.00000000
  30       0.00000000
  31       1.08236426
  32       0.02156547
  33      -0.00000000
  34      -0.00000000
  35      -1.69433890
  36      -0.03375870
  37       0.00000000
  38      -0.00000000
  39       0.70495953
  40       0.01404590
  41       0.00000000
  42       0.00000000
  43       0.00000000
  44      -0.04143248
  45      -0.00082552
  46       0.00000000
Ene=     1.73886E-01
Spin= Alpha
Occup=   0.0000000000
   1      -0.00000000
   2      -0.00000000
   3      -0.00000000
   4      -0.00158660
   5       0.07963120
   6       0.00000000
   7      -0.00000000
   8      -0.00906228
   9       0.45483323
  10      -0.00000000
  11      -0.00000000
  12       0.00879776
  13      -0.44155686
  14       0.00000000
  15       0.00000000
  16      -0.00146372
  17       0.07346385
  18       0.00000000
  19       0.00000000
  20       0.00000000
  21      -0.00098058
  22       0.04921490
  23      -0.00000000
  24      -0.00000000
  25      -0.00000000
  26      -0.00000000
  27      -0.00434922
  28       0.21828625
  29      -0.00000000
  30      -0.00000000
  31      -0.02156547
  32       1.08236426
  33       0.00000000
  34       0.00000000
  35       0.03375870
  36      -1.69433890
  37      -0.00000000
  38      -0.00000000
  39      -0.01404590
  40       0.70495953
  41       0.00000000
  42      -0.00000000
  43      -0.00000000
  44       0.00082552
  45      -0.04143248
  46      -0.00000000
Ene=     1.79803E-01
Spin= Alpha
Occup=   0.0000000000
   1       0.06687227
   2       0.08132780
   3       0.00266628
   4       0.00000000
   5      -0.00000000
   6      -1.07699506
   7      -0.02433302
   8       0.00000000
   9      -0.00000000
  10       1.38096147
  11      -0.20771442
  12      -0.00000000
  13       0.00000000
  14       0.53132532
  15       0.27326091
  16       0.00000000
  17      -0.00000000
  18      -0.14741034
  19      -0.10544412
  20      -0.10544412
  21       0.00000000
  22      -0.00000000
  23       0.00000000
  24       0.08027947
  25       0.09201908
  26      -0.11266103
  27       0.00000000
  28       0.00000000
  29      -1.45255500
  30      -0.39400807
  31       0.00000000
  32       0.00000000
  33       2.63722336
  34       0.27687088
  35       0.00000000
  36      -0.00000000
  37      -1.89566239
  38       0.36470348
  39       0.00000000
  40       0.00000000
  41      -0.21802635
  42      -0.13956211
  43      -0.13956211
  44      -0.00000000
  45       0.00000000
  46       0.00000000
Ene=     2.03845E-01
Spin= Alpha
Occup=   0.0000000000
   1       0.00000000
   2       0.00000000
   3       0.00000000
   4       0.22941522
   5       0.00454972
   6      -0.00000000
   7       0.00000000
   8       1.08767485
   9       0.02157056
  10       0.00000000
  11      -0.00000000
  12      -2.06426650
  13      -0.04093814
  14      -0.00000000
  15      -0.00000000
  16       1.09485262
  17       0.02171291
  18      -0.00000000
  19      -0.00000000
  20      -0.00000000
  21       0.01599645
  22       0.00031724
  23       0.00000000
  24      -0.00000000
  25      -0.00000000
  26       0.00000000
  27      -0.11035809
  28      -0.00218860
  29       0.00000000
  30       0.00000000
  31      -0.48219263
  32      -0.00956275
  33      -0.00000000
  34      -0.00000000
  35       1.21032810
  36       0.02400300
  37       0.00000000
  38      -0.00000000
  39      -0.77912346
  40      -0.01545143
  41       0.00000000
  42       0.00000000
  43       0.00000000
  44      -0.02261793
  45      -0.00044855
  46      -0.00000000
Ene=     2.03845E-01
Spin= Alpha
Occup=   0.0000000000
   1      -0.00000000
   2      -0.00000000
   3      -0.00000000
   4      -0.00454972
   5       0.22941522
   6       0.00000000
   7      -0.00000000
   8      -0.02157056
   9       1.08767485
  10      -0.00000000
  11       0.00000000
  12       0.04093814
  13      -2.06426650
  14       0.00000000
  15       0.00000000
  16      -0.02171291
  17       1.09485262
  18       0.00000000
  19       0.00000000
  20       0.00000000
  21      -0.00031724
  22       0.01599645
  23       0.00000000
  24       0.00000000
  25       0.00000000
  26      -0.00000000
  27       0.00218860
  28      -0.11035809
  29      -0.00000000
  30      -0.00000000
  31       0.00956275
  32      -0.48219263
  33       0.00000000
  34       0.00000000
  35      -0.02400300
  36       1.21032810
  37      -0.00000000
  38       0.00000000
  39       0.01545143
  40      -0.77912346
  41      -0.00000000
  42      -0.00000000
  43      -0.00000000
  44       0.00044855
  45      -0.02261793
  46      -0.00000000
Ene=     2.17608E-01
Spin= Alpha
Occup=   0.0000000000
   1      -0.03082674
   2      -0.03273779
   3      -0.25032561
   4       0.00000000
   5      -0.00000000
   6       0.68607130
   7      -0.97984318
   8       0.00000000
   9      -0.00000000
  10      -1.03373561
  11       1.49690830
  12      -0.00000000
  13       0.00000000
  14       4.18194041
  15       0.79819269
  16       0.00000000
  17      -0.00000000
  18       0.13706111
  19       0.04867713
  20       0.04867713
  21       0.00000000
  22      -0.00000000
  23      -0.00000000
  24      -0.00503849
  25      -0.01221440
  26      -0.20302488
  27      -0.00000000
  28       0.00000000
  29      -0.09323877
  30      -0.75483592
  31      -0.00000000
  32       0.00000000
  33       0.01546785
  34       1.10431013
  35       0.00000000
  36      -0.00000000
  37      -3.78645679
  38       0.92434409
  39      -0.00000000
  40       0.00000000
  41      -0.07178320
  42       0.01102199
  43       0.01102199
  44      -0.00000000
  45       0.00000000
  46      -0.00000000
Ene=     2.67404E-01
Spin= Alpha
Occup=   0.0000000000
   1      -0.08471322
   2      -0.10297299
   3       0.12823919
   4       0.00000000
   5      -0.00000000
   6       1.72134689
   7       0.26926097
   8       0.00000000
   9      -0.00000000
  10      -6.52715057
  11      -2.63848509
  12      -0.00000000
  13       0.00000000
  14       9.34037344
  15       2.97193145
  16       0.00000000
  17      -0.00000000
  18       0.11928289
  19       0.19694876
  20       0.19694876
  21       0.00000000
  22      -0.00000000
  23       0.00000000
  24       0.07606192
  25       0.09268507
  26       0.12521773
  27      -0.00000000
  28       0.00000000
  29      -1.55131136
  30       0.26438896
  31      -0.00000000
  32       0.00000000
  33       6.24056008
  34      -2.63386412
  35       0.00000000
  36      -0.00000000
  37      -9.20610688
  38       3.00741356
  39      -0.00000000
  40       0.00000000
  41      -0.07988462
  42      -0.18668215
  43      -0.18668215
  44      -0.00000000
  45       0.00000000
  46      -0.00000000
Ene=     4.27566E-01
Spin= Alpha
Occup=   0.0000000000
   1      -0.00000000
   2      -0.00000000
   3      -0.00000000
   4      -0.07964375
   5       0.00883572
   6       0.00000000
   7      -0.00000000
   8      -0.09616415
   9       0.01066850
  10      -0.00000000
  11       0.00000000
  12      -0.00200254
  13       0.00022216
  14       0.00000000
  15       0.00000000