[Molden Format]
[Title]
 Molden2AIM, Version 3.1.0 (02/25/2015)           Time: Mon Dec  2 17:41:17 2024

[Atoms] AU
BE       1       4     0.00000000     0.00000000     0.00000000
[GTO]
    1 0
 S   6 1.0
    0.1682800000D+04      0.2285740532D-02
    0.2517150000D+03      0.1759380410D-01
    0.5741160000D+02      0.8633152009D-01
    0.1651710000D+02      0.2818350656D+00
    0.4853640000D+01      0.6405941491D+00
    0.6268630000D+00      0.1444670336D+00
 S   3 1.0
    0.8309380000D+01      0.1086210323D+00
    0.1740750000D+01      0.9273012759D+00
    0.4858160000D+00     -0.2971690884D-02
 P   3 1.0
    0.8309380000D+01      0.3613440323D-01
    0.1740750000D+01      0.2169580194D+00
    0.4858160000D+00      0.8418390753D+00
 S   1 1.0
    0.1636130000D+00      0.1000000000D+01
 P   1 1.0
    0.1636130000D+00      0.1000000000D+01
 S   1 1.0
    0.5672850000D-01      0.1000000000D+01
 P   1 1.0
    0.5672850000D-01      0.1000000000D+01
 S   1 1.0
    0.2070000000D-01      0.1000000000D+01
 P   1 1.0
    0.2070000000D-01      0.1000000000D+01
 D   1 1.0
    0.2550000000D+00      0.1000000000D+01


[MO]
 Ene=         -4.08151000
 Spin= Alpha
 Occup=        2.00000000
    1        0.5958159500
    2        0.4351678500
    3        0.0000000000
    4        0.0000000000
    5       -0.0000000000
    6        0.0348704100
    7        0.0000000000
    8       -0.0000000000
    9       -0.0000000000
   10        0.0024910500
   11        0.0000000000
   12        0.0000000000
   13        0.0000000000
   14       -0.0012433600
   15        0.0000000000
   16       -0.0000000000
   17       -0.0000000000
   18       -0.0124274800
   19       -0.0124274800
   20       -0.0124274800
   21       -0.0000000000
   22       -0.0000000000
   23        0.0000000000
 Ene=         -0.22910800
 Spin= Alpha
 Occup=        2.00000000
    1       -0.1241135900
    2       -0.1880965200
    3       -0.0000000000
    4        0.0000000000
    5        0.0000000000
    6        0.6259971500
    7       -0.0000000000
    8        0.0000000000
    9        0.0000000000
   10        0.4714010000
   11       -0.0000000000
   12        0.0000000000
   13       -0.0000000000
   14        0.0249688900
   15        0.0000000000
   16       -0.0000000000
   17        0.0000000000
   18       -0.0079864500
   19       -0.0079864500
   20       -0.0079864500
   21       -0.0000000000
   22        0.0000000000
   23        0.0000000000
 Ene=         -0.04963880
 Spin= Alpha
 Occup=        0.00000000
    1       -0.0000000000
    2       -0.0000000000
    3       -0.0534403900
    4        0.0608918300
    5       -0.2143747900
    6        0.0000000000
    7       -0.0839530500
    8        0.0956590200
    9       -0.3367755900
   10       -0.0000000000
   11       -0.1019809600
   12        0.1162006500
   13       -0.4090941000
   14        0.0000000000
   15       -0.0501294000
   16        0.0571191800
   17       -0.2010928600
   18       -0.0000000000
   19        0.0000000000
   20        0.0000000000
   21        0.0000000000
   22        0.0000000000
   23       -0.0000000000
 Ene=         -0.04963880
 Spin= Alpha
 Occup=        0.00000000
    1        0.0000000000
    2        0.0000000000
    3       -0.0005936800
    4        0.2204126100
    5        0.0627548300
    6       -0.0000000000
    7       -0.0009326500
    8        0.3462608000
    9        0.0985857300
   10        0.0000000000
   11       -0.0011329300
   12        0.4206161500
   13        0.1197558400
   14       -0.0000000000
   15       -0.0005569000
   16        0.2067566000
   17        0.0588667600
   18       -0.0000000000
   19        0.0000000000
   20       -0.0000000000
   21        0.0000000000
   22       -0.0000000000
   23        0.0000000000
 Ene=         -0.04963880
 Spin= Alpha
 Occup=        0.00000000
    1        0.0000000000
    2        0.0000000000
    3       -0.2228542400
    4       -0.0151890200
    5        0.0512398400
    6       -0.0000000000
    7       -0.3500965200
    8       -0.0238614400
    9        0.0804960700
   10        0.0000000000
   11       -0.4252755400
   12       -0.0289854000
   13        0.0977816300
   14       -0.0000000000
   15       -0.2090469500
   16       -0.0142479600
   17        0.0480651900
   18        0.0000000000
   19       -0.0000000000
   20       -0.0000000000
   21       -0.0000000000
   22        0.0000000000
   23       -0.0000000000
 Ene=          0.01674570
 Spin= Alpha
 Occup=        0.00000000
    1       -0.0450965000
    2       -0.0785246700
    3        0.0000000000
    4       -0.0000000000
    5        0.0000000000
    6        0.2010089500
    7       -0.0000000000
    8        0.0000000000
    9        0.0000000000
   10        1.1495081600
   11        0.0000000000
   12       -0.0000000000
   13        0.0000000000
   14       -1.7085935300
   15       -0.0000000000
   16       -0.0000000000
   17       -0.0000000000
   18       -0.0306527400
   19       -0.0306527400
   20       -0.0306527400
   21       -0.0000000000
   22        0.0000000000
   23        0.0000000000
 Ene=          0.04019500
 Spin= Alpha
 Occup=        0.00000000
    1       -0.0000000000
    2        0.0000000000
    3        0.0416557400
    4        0.1440580000
    5        0.0556629200
    6        0.0000000000
    7        0.0384473500
    8        0.1329624200
    9        0.0513756700
   10       -0.0000000000
   11        0.1898467400
   12        0.6565467500
   13        0.2536846700
   14        0.0000000000
   15       -0.3459787100
   16       -1.1964977600
   17       -0.4623176400
   18        0.0000000000
   19       -0.0000000000
   20        0.0000000000
   21       -0.0000000000
   22        0.0000000000
   23        0.0000000000
 Ene=          0.04019500
 Spin= Alpha
 Occup=        0.00000000
    1        0.0000000000
    2        0.0000000000
    3        0.0762366100
    4        0.0309573100
    5       -0.1371710300
    6       -0.0000000000
    7        0.0703647400
    8        0.0285729300
    9       -0.1266059100
   10        0.0000000000
   11        0.3474496100
   12        0.1410884400
   13       -0.6251593000
   14       -0.0000000000
   15       -0.6331958600
   16       -0.2571210700
   17        1.1392969400
   18        0.0000000000
   19       -0.0000000000
   20       -0.0000000000
   21       -0.0000000000
   22        0.0000000000
   23       -0.0000000000
 Ene=          0.04019500
 Spin= Alpha
 Occup=        0.00000000
    1       -0.0000000000
    2       -0.0000000000
    3        0.1343095200
    4       -0.0622511500
    5        0.0605971500
    6        0.0000000000
    7        0.1239647900
    8       -0.0574564700
    9        0.0559298600
   10       -0.0000000000
   11        0.6121178900
   12       -0.2837106800
   13        0.2761725300
   14        0.0000000000
   15       -1.1155301400
   16        0.5170373500
   17       -0.5032997600
   18        0.0000000000
   19       -0.0000000000
   20        0.0000000000
   21        0.0000000000
   22       -0.0000000000
   23       -0.0000000000
 Ene=          0.22759700
 Spin= Alpha
 Occup=        0.00000000
    1       -0.0000000000
    2       -0.0000000000
    3        0.0175823900
    4       -0.2345685900
    5        0.0895868600
    6        0.0000000000
    7        0.0791491900
    8       -1.0559377500
    9        0.4032856700
   10       -0.0000000000
   11       -0.1363156700
   12        1.8186018600
   13       -0.6945637400
   14        0.0000000000
   15        0.0651358100
   16       -0.8689838200
   17        0.3318838800
   18        0.0000000000
   19        0.0000000000
   20        0.0000000000
   21       -0.0000000000
   22        0.0000000000
   23        0.0000000000
 Ene=          0.22759700
 Spin= Alpha
 Occup=        0.00000000
    1       -0.0000000000
    2       -0.0000000000
    3        0.0008284400
    4        0.0898599300
    5        0.2351209800
    6        0.0000000000
    7        0.0037293200
    8        0.4045149200
    9        1.0584244100
   10       -0.0000000000
   11       -0.0064228700
   12       -0.6966808200
   13       -1.8228845400
   14        0.0000000000
   15        0.0030690500
   16        0.3328954900
   17        0.8710302200
   18        0.0000000000
   19        0.0000000000
   20        0.0000000000
   21       -0.0000000000
   22       -0.0000000000
   23        0.0000000000
 Ene=          0.22759700
 Spin= Alpha
 Occup=        0.00000000
    1       -0.0000000000
    2       -0.0000000000
    3        0.2510927000
    4        0.0161288400
    5       -0.0070489300
    6        0.0000000000
    7        1.1303229400
    8        0.0726058400
    9       -0.0317315900
   10       -0.0000000000
   11       -1.9467126800
   12       -0.1250463100
   13        0.0546501200
   14        0.0000000000
   15        0.9301991000
   16        0.0597509700
   17       -0.0261135000
   18        0.0000000000
   19        0.0000000000
   20        0.0000000000
   21        0.0000000000
   22       -0.0000000000
   23       -0.0000000000
 Ene=          0.22809300
 Spin= Alpha
 Occup=        0.00000000
    1       -0.1102625600
    2       -0.1341613600
    3       -0.0000000000
    4        0.0000000000
    5       -0.0000000000
    6        1.8689001400
    7       -0.0000000000
    8        0.0000000000
    9       -0.0000000000
   10       -3.3535977900
   11        0.0000000000
   12       -0.0000000000
   13        0.0000000000
   14        1.4829990300
   15       -0.0000000000
   16        0.0000000000
   17       -0.0000000000
   18        0.2017552000
   19        0.2017552000
   20        0.2017552000
   21       -0.0000000000
   22       -0.0000000000
   23        0.0000000000
 Ene=          0.52580800
 Spin= Alpha
 Occup=        0.00000000
    1       -0.0000000000
    2       -0.0000000000
    3        0.0000000000
    4       -0.0000000000
    5       -0.0000000000
    6        0.0000000000
    7       -0.0000000000
    8        0.0000000000
    9       -0.0000000000
   10        0.0000000000
   11        0.0000000000
   12       -0.0000000000
   13        0.0000000000
   14       -0.0000000000
   15       -0.0000000000
   16        0.0000000000
   17       -0.0000000000
   18        0.4645121000
   19        0.5291051900
   20       -0.9936172800
   21       -0.0892312600
   22       -0.0134241900
   23        0.0564934700
 Ene=          0.52580800
 Spin= Alpha
 Occup=        0.00000000
    1       -0.0000000000
    2       -0.0000000000
    3        0.0000000000
    4       -0.0000000000
    5       -0.0000000000
    6        0.0000000000
    7       -0.0000000000
    8        0.0000000000
    9       -0.0000000000
   10       -0.0000000000
   11        0.0000000000
   12       -0.0000000000
   13        0.0000000000
   14        0.0000000000
   15       -0.0000000000
   16        0.0000000000
   17       -0.0000000000
   18       -0.0612001800
   19       -0.0344123100
   20        0.0956124900
   21       -0.5321251400
   22        0.0389485200
   23        0.8402052700
 Ene=          0.52580800
 Spin= Alpha
 Occup=        0.00000000
    1       -0.0000000000
    2       -0.0000000000
    3       -0.0000000000
    4        0.0000000000
    5        0.0000000000
    6        0.0000000000
    7        0.0000000000
    8       -0.0000000000
    9       -0.0000000000
   10       -0.0000000000
   11       -0.0000000000
   12        0.0000000000
   13        0.0000000000
   14        0.0000000000
   15        0.0000000000
   16       -0.0000000000
   17       -0.0000000000
   18        0.1607350900
   19       -0.1149799700
   20       -0.0457551200
   21        0.8079651100
   22       -0.1995472400
   23        0.5290937000
 Ene=          0.52580800
 Spin= Alpha
 Occup=        0.00000000
    1       -0.0000000000
    2       -0.0000000000
    3        0.0000000000
    4        0.0000000000
    5       -0.0000000000
    6        0.0000000000
    7        0.0000000000
    8        0.0000000000
    9        0.0000000000
   10       -0.0000000000
   11       -0.0000000000
   12        0.0000000000
   13       -0.0000000000
   14        0.0000000000
   15        0.0000000000
   16       -0.0000000000
   17        0.0000000000
   18        0.6464226900
   19       -0.6078332600
   20       -0.0385894300
   21        0.0243028000
   22        0.6881371700
   23        0.0012133400
 Ene=          0.52580800
 Spin= Alpha
 Occup=        0.00000000
    1       -0.0000000000
    2       -0.0000000000
    3        0.0000000000
    4       -0.0000000000
    5        0.0000000000
    6        0.0000000000
    7       -0.0000000000
    8       -0.0000000000
    9       -0.0000000000
   10       -0.0000000000
   11        0.0000000000
   12        0.0000000000
   13        0.0000000000
   14       -0.0000000000
   15        0.0000000000
   16       -0.0000000000
   17       -0.0000000000
   18        0.5803317900
   19       -0.5798118900
   20       -0.0005198900
   21       -0.2355469600
   22       -0.6963841900
   23       -0.1045082200
 Ene=          0.96069300
 Spin= Alpha
 Occup=        0.00000000
    1       -0.0000000000
    2       -0.0000000000
    3       -0.0344039400
    4        1.3864144700
    5        0.0658791400
    6        0.0000000000
    7        0.0453585100
    8       -1.8278632100
    9       -0.0868557400
   10        0.0000000000
   11       -0.0293496900
   12        1.1827376600
   13        0.0562009000
   14       -0.0000000000
   15        0.0103836000
   16       -0.4184395700
   17       -0.0198832600
   18       -0.0000000000
   19       -0.0000000000
   20       -0.0000000000
   21       -0.0000000000
   22       -0.0000000000
   23        0.0000000000
 Ene=          0.96069300
 Spin= Alpha
 Occup=        0.00000000
    1       -0.0000000000
    2        0.0000000000
    3        0.0649726600
    4       -0.0642184600
    5        1.3853964500
    6        0.0000000000
    7       -0.0856606300
    8        0.0846662900
    9       -1.8265210400
   10       -0.0000000000
   11        0.0554275900
   12       -0.0547841900
   13        1.1818692000
   14        0.0000000000
   15       -0.0196096700
   16        0.0193820400
   17       -0.4181323200
   18        0.0000000000
   19       -0.0000000000
   20        0.0000000000
   21       -0.0000000000
   22        0.0000000000
   23        0.0000000000
 Ene=          0.96069300
 Spin= Alpha
 Occup=        0.00000000
    1        0.0000000000
    2       -0.0000000000
    3       -1.3864572500
    4       -0.0374123100
    5        0.0632882100
    6        0.0000000000
    7        1.8279196100
    8        0.0493247700
    9       -0.0834398300
   10       -0.0000000000
   11       -1.1827741600
   12       -0.0319161000
   13        0.0539906000
   14        0.0000000000
   15        0.4184524800
   16        0.0112915700
   17       -0.0191012800
   18       -0.0000000000
   19        0.0000000000
   20        0.0000000000
   21       -0.0000000000
   22        0.0000000000
   23        0.0000000000
 Ene=          1.20845000
 Spin= Alpha
 Occup=        0.00000000
    1       -0.1892080900
    2       -0.6983037100
    3       -0.0000000000
    4       -0.0000000000
    5        0.0000000000
    6        2.7996906600
    7        0.0000000000
    8        0.0000000000
    9       -0.0000000000
   10        1.5219905800
   11       -0.0000000000
   12       -0.0000000000
   13        0.0000000000
   14       -0.5438469400
   15        0.0000000000
   16       -0.0000000000
   17       -0.0000000000
   18       -1.6759275800
   19       -1.6759275800
   20       -1.6759275800
   21       -0.0000000000
   22        0.0000000000
   23       -0.0000000000
 Ene=          9.36587000
 Spin= Alpha
 Occup=        0.00000000
    1       -1.9161073700
    2        2.5812748900
    3        0.0000000000
    4       -0.0000000000
    5       -0.0000000000
    6       -2.0701507900
    7        0.0000000000
    8       -0.0000000000
    9        0.0000000000
   10       -0.3899844400
   11        0.0000000000
   12       -0.0000000000
   13       -0.0000000000
   14        0.1540209700
   15        0.0000000000
   16       -0.0000000000
   17        0.0000000000
   18        0.8942905300
   19        0.8942905300
   20        0.8942905300
   21       -0.0000000000
   22        0.0000000000
   23       -0.0000000000

