[Molden Format]
[Title]
 Molden2AIM, Version 3.1.0 (02/25/2015)           Time: Mon Dec  2 17:19:51 2024

[Atoms] AU
BE       1       4     0.00000000     0.00000000     0.00000000
[GTO]
    1 0
 S   6 1.0
    0.1682800000D+04      0.2285740532D-02
    0.2517150000D+03      0.1759380410D-01
    0.5741160000D+02      0.8633152009D-01
    0.1651710000D+02      0.2818350656D+00
    0.4853640000D+01      0.6405941491D+00
    0.6268630000D+00      0.1444670336D+00
 S   3 1.0
    0.8309380000D+01      0.1086210323D+00
    0.1740750000D+01      0.9273012759D+00
    0.4858160000D+00     -0.2971690884D-02
 P   3 1.0
    0.8309380000D+01      0.3613440323D-01
    0.1740750000D+01      0.2169580194D+00
    0.4858160000D+00      0.8418390753D+00
 S   1 1.0
    0.1636130000D+00      0.1000000000D+01
 P   1 1.0
    0.1636130000D+00      0.1000000000D+01
 S   1 1.0
    0.5672850000D-01      0.1000000000D+01
 P   1 1.0
    0.5672850000D-01      0.1000000000D+01
 S   1 1.0
    0.2070000000D-01      0.1000000000D+01
 P   1 1.0
    0.2070000000D-01      0.1000000000D+01
 D   1 1.0
    0.2550000000D+00      0.1000000000D+01


[MO]
 Ene=         -4.13654000
 Spin= Alpha
 Occup=        2.00000000
    1        0.5962092700
    2        0.4351089800
    3        0.0000000000
    4        0.0000000000
    5       -0.0000000000
    6        0.0336918300
    7        0.0000000000
    8       -0.0000000000
    9       -0.0000000000
   10        0.0026118700
   11        0.0000000000
   12        0.0000000000
   13        0.0000000000
   14       -0.0012829200
   15        0.0000000000
   16       -0.0000000000
   17       -0.0000000000
   18       -0.0121083200
   19       -0.0121083200
   20       -0.0121083200
   21       -0.0000000000
   22        0.0000000000
   23        0.0000000000
 Ene=         -0.26924300
 Spin= Alpha
 Occup=        2.00000000
    1        0.1179710800
    2        0.1792055000
    3       -0.0000000000
    4        0.0000000000
    5        0.0000000000
    6       -0.6096390100
    7       -0.0000000000
    8        0.0000000000
    9        0.0000000000
   10       -0.3160540900
   11       -0.0000000000
   12       -0.0000000000
   13       -0.0000000000
   14       -0.2530389100
   15       -0.0000000000
   16        0.0000000000
   17        0.0000000000
   18        0.0117568100
   19        0.0117568100
   20        0.0117568100
   21       -0.0000000000
   22       -0.0000000000
   23        0.0000000000
 Ene=         -0.15324300
 Spin= Alpha
 Occup=        0.00000000
    1       -0.0000000000
    2       -0.0000000000
    3       -0.0425273600
    4       -0.0010686100
    5       -0.0016988600
    6       -0.0000000000
    7       -0.2170846700
    8       -0.0054548000
    9       -0.0086719800
   10        0.0000000000
   11        0.4376746700
   12        0.0109976800
   13        0.0174839800
   14       -0.0000000000
   15       -1.2266156000
   16       -0.0308218200
   17       -0.0490001500
   18       -0.0000000000
   19       -0.0000000000
   20       -0.0000000000
   21       -0.0000000000
   22        0.0000000000
   23        0.0000000000
 Ene=         -0.15324300
 Spin= Alpha
 Occup=        0.00000000
    1        0.0000000000
    2       -0.0000000000
    3       -0.0007878600
    4        0.0420340000
    5       -0.0067176100
    6        0.0000000000
    7       -0.0040217000
    8        0.2145662900
    9       -0.0342906100
   10       -0.0000000000
   11        0.0081083400
   12       -0.4325972400
   13        0.0691349300
   14        0.0000000000
   15       -0.0227242100
   16        1.2123857300
   17       -0.1937557400
   18        0.0000000000
   19       -0.0000000000
   20        0.0000000000
   21        0.0000000000
   22       -0.0000000000
   23       -0.0000000000
 Ene=         -0.15324300
 Spin= Alpha
 Occup=        0.00000000
    1        0.0000000000
    2        0.0000000000
    3        0.0018458900
    4       -0.0066787000
    5       -0.0420070500
    6        0.0000000000
    7        0.0094225200
    8       -0.0340920100
    9       -0.2144286900
   10       -0.0000000000
   11       -0.0189972000
   12        0.0687345200
   13        0.4323198200
   14        0.0000000000
   15        0.0532410500
   16       -0.1926335700
   17       -1.2116082400
   18        0.0000000000
   19        0.0000000000
   20        0.0000000000
   21       -0.0000000000
   22       -0.0000000000
   23        0.0000000000
 Ene=         -0.13316200
 Spin= Alpha
 Occup=        0.00000000
    1        0.0460232000
    2        0.0892586900
    3       -0.0000000000
    4        0.0000000000
    5        0.0000000000
    6       -0.0374990200
    7       -0.0000000000
    8        0.0000000000
    9        0.0000000000
   10       -1.6812947700
   11        0.0000000000
   12        0.0000000000
   13       -0.0000000000
   14        1.8886157100
   15       -0.0000000000
   16        0.0000000000
   17        0.0000000000
   18        0.0741180500
   19        0.0741180500
   20        0.0741180500
   21        0.0000000000
   22       -0.0000000000
   23        0.0000000000
 Ene=         -0.07715680
 Spin= Alpha
 Occup=        0.00000000
    1       -0.0000000000
    2       -0.0000000000
    3       -0.1941718500
    4        0.0451912100
    5        0.1778752300
    6        0.0000000000
    7       -0.1335850500
    8        0.0310903500
    9        0.1223734100
   10        0.0000000000
   11       -0.7822531500
   12        0.1820602100
   13        0.7165995600
   14       -0.0000000000
   15        0.5855940300
   16       -0.1362901100
   17       -0.5364458100
   18       -0.0000000000
   19        0.0000000000
   20        0.0000000000
   21        0.0000000000
   22       -0.0000000000
   23        0.0000000000
 Ene=         -0.07715680
 Spin= Alpha
 Occup=        0.00000000
    1        0.0000000000
    2        0.0000000000
    3        0.1758927100
    4       -0.0280824700
    5        0.1991423600
    6        0.0000000000
    7        0.1210094900
    8       -0.0193199900
    9        0.1370046300
   10       -0.0000000000
   11        0.7086126500
   12       -0.1131348500
   13        0.8022776700
   14        0.0000000000
   15       -0.5304668200
   16        0.0846926500
   17       -0.6005843700
   18        0.0000000000
   19        0.0000000000
   20        0.0000000000
   21       -0.0000000000
   22        0.0000000000
   23        0.0000000000
 Ene=         -0.07715680
 Spin= Alpha
 Occup=        0.00000000
    1       -0.0000000000
    2       -0.0000000000
    3       -0.0523793700
    4       -0.2618275800
    5        0.0093419800
    6        0.0000000000
    7       -0.0360356100
    8       -0.1801303800
    9        0.0064270300
   10       -0.0000000000
   11       -0.2110188800
   12       -1.0548153500
   13        0.0376356900
   14        0.0000000000
   15        0.1579685500
   16        0.7896338600
   17       -0.0281740400
   18        0.0000000000
   19       -0.0000000000
   20        0.0000000000
   21        0.0000000000
   22       -0.0000000000
   23       -0.0000000000
 Ene=          0.14544600
 Spin= Alpha
 Occup=        0.00000000
    1        0.0000000000
    2        0.0000000000
    3       -0.0452931000
    4       -0.0013898800
    5       -0.2483198900
    6       -0.0000000000
    7       -0.2153700700
    8       -0.0066089200
    9       -1.1807687600
   10        0.0000000000
   11        0.3270380400
   12        0.0100356000
   13        1.7929895800
   14       -0.0000000000
   15       -0.1332163700
   16       -0.0040879200
   17       -0.7303601800
   18       -0.0000000000
   19       -0.0000000000
   20       -0.0000000000
   21        0.0000000000
   22        0.0000000000
   23       -0.0000000000
 Ene=          0.14544600
 Spin= Alpha
 Occup=        0.00000000
    1       -0.0000000000
    2       -0.0000000000
    3        0.2248478300
    4       -0.1073619100
    5       -0.0404109200
    6        0.0000000000
    7        1.0691583600
    8       -0.5105091700
    9       -0.1921551500
   10       -0.0000000000
   11       -1.6235099200
   12        0.7752048200
   13        0.2917863300
   14        0.0000000000
   15        0.6613239800
   16       -0.3157735700
   17       -0.1188568600
   18        0.0000000000
   19        0.0000000000
   20        0.0000000000
   21        0.0000000000
   22        0.0000000000
   23       -0.0000000000
 Ene=          0.14544600
 Spin= Alpha
 Occup=        0.00000000
    1        0.0000000000
    2        0.0000000000
    3       -0.1053952400
    4       -0.2284461800
    5        0.0205025400
    6       -0.0000000000
    7       -0.5011576100
    8       -1.0862686200
    9        0.0974902300
   10        0.0000000000
   11        0.7610045300
   12        1.6494917500
   13       -0.1480382700
   14       -0.0000000000
   15       -0.3099892000
   16       -0.6719074700
   17        0.0603022200
   18       -0.0000000000
   19       -0.0000000000
   20       -0.0000000000
   21       -0.0000000000
   22        0.0000000000
   23        0.0000000000
 Ene=          0.14870900
 Spin= Alpha
 Occup=        0.00000000
    1       -0.1159759900
    2       -0.1331049900
    3       -0.0000000000
    4       -0.0000000000
    5       -0.0000000000
    6        1.8398149000
    7       -0.0000000000
    8        0.0000000000
    9       -0.0000000000
   10       -3.1736413200
   11        0.0000000000
   12       -0.0000000000
   13        0.0000000000
   14        1.2353290700
   15       -0.0000000000
   16        0.0000000000
   17       -0.0000000000
   18        0.2244171500
   19        0.2244171500
   20        0.2244171500
   21       -0.0000000000
   22       -0.0000000000
   23       -0.0000000000
 Ene=          0.49143300
 Spin= Alpha
 Occup=        0.00000000
    1        0.0000000000
    2       -0.0000000000
    3        0.0000000000
    4        0.0000000000
    5       -0.0000000000
    6       -0.0000000000
    7       -0.0000000000
    8       -0.0000000000
    9        0.0000000000
   10        0.0000000000
   11        0.0000000000
   12        0.0000000000
   13       -0.0000000000
   14       -0.0000000000
   15       -0.0000000000
   16       -0.0000000000
   17       -0.0000000000
   18       -0.1654654800
   19        0.9349752000
   20       -0.7695097200
   21        0.0621752900
   22       -0.0181032800
   23        0.0021769600
 Ene=          0.49143300
 Spin= Alpha
 Occup=        0.00000000
    1       -0.0000000000
    2        0.0000000000
    3        0.0000000000
    4        0.0000000000
    5       -0.0000000000
    6        0.0000000000
    7       -0.0000000000
    8       -0.0000000000
    9        0.0000000000
   10       -0.0000000000
   11       -0.0000000000
   12       -0.0000000000
   13        0.0000000000
   14        0.0000000000
   15       -0.0000000000
   16        0.0000000000
   17       -0.0000000000
   18       -0.9673687500
   19        0.3350920600
   20        0.6322766900
   21        0.1333384100
   22       -0.0115930000
   23        0.1297867400
 Ene=          0.49143300
 Spin= Alpha
 Occup=        0.00000000
    1        0.0000000000
    2       -0.0000000000
    3        0.0000000000
    4       -0.0000000000
    5       -0.0000000000
    6        0.0000000000
    7        0.0000000000
    8        0.0000000000
    9       -0.0000000000
   10       -0.0000000000
   11       -0.0000000000
   12       -0.0000000000
   13        0.0000000000
   14        0.0000000000
   15        0.0000000000
   16        0.0000000000
   17       -0.0000000000
   18        0.1276682200
   19       -0.0462473200
   20       -0.0814209000
   21       -0.0110046300
   22        0.0184259600
   23        0.9913767300
 Ene=          0.49143300
 Spin= Alpha
 Occup=        0.00000000
    1       -0.0000000000
    2        0.0000000000
    3        0.0000000000
    4       -0.0000000000
    5       -0.0000000000
    6       -0.0000000000
    7       -0.0000000000
    8        0.0000000000
    9       -0.0000000000
   10       -0.0000000000
   11        0.0000000000
   12       -0.0000000000
   13        0.0000000000
   14        0.0000000000
   15       -0.0000000000
   16        0.0000000000
   17       -0.0000000000
   18       -0.1395952500
   19        0.1015060500
   20        0.0380892100
   21       -0.9833535400
   22       -0.1100843600
   23        0.0083573800
 Ene=          0.49143300
 Spin= Alpha
 Occup=        0.00000000
    1        0.0000000000
    2        0.0000000000
    3        0.0000000000
    4        0.0000000000
    5       -0.0000000000
    6       -0.0000000000
    7       -0.0000000000
    8        0.0000000000
    9        0.0000000000
   10       -0.0000000000
   11        0.0000000000
   12       -0.0000000000
   13       -0.0000000000
   14        0.0000000000
   15       -0.0000000000
   16        0.0000000000
   17        0.0000000000
   18       -0.0321381300
   19        0.0330514300
   20       -0.0009133000
   21       -0.1060651200
   22        0.9935188900
   23       -0.0159061100
 Ene=          0.90781000
 Spin= Alpha
 Occup=        0.00000000
    1       -0.0000000000
    2       -0.0000000000
    3        0.0657811500
    4        0.1715444500
    5        1.3778478500
    6        0.0000000000
    7       -0.0855010400
    8       -0.2229700700
    9       -1.7908993500
   10       -0.0000000000
   11        0.0531512700
   12        0.1386081600
   13        1.1133030500
   14        0.0000000000
   15       -0.0182044200
   16       -0.0474735700
   17       -0.3813085400
   18       -0.0000000000
   19        0.0000000000
   20        0.0000000000
   21       -0.0000000000
   22        0.0000000000
   23        0.0000000000
 Ene=          0.90781000
 Spin= Alpha
 Occup=        0.00000000
    1        0.0000000000
    2        0.0000000000
    3       -0.0412473600
    4        1.3790259200
    5       -0.1697218900
    6       -0.0000000000
    7        0.0536125000
    8       -1.7924305800
    9        0.2206011500
   10        0.0000000000
   11       -0.0333279200
   12        1.1142549400
   13       -0.1371355300
   14        0.0000000000
   15        0.0114148800
   16       -0.3816345600
   17        0.0469692000
   18        0.0000000000
   19        0.0000000000
   20        0.0000000000
   21       -0.0000000000
   22       -0.0000000000
   23        0.0000000000
 Ene=          0.90781000
 Spin= Alpha
 Occup=        0.00000000
    1       -0.0000000000
    2        0.0000000000
    3       -1.3878727700
    4       -0.0328537200
    5        0.0703501100
    6       -0.0000000000
    7        1.8039295500
    8        0.0427026100
    9       -0.0914396800
   10        0.0000000000
   11       -1.1214032100
   12       -0.0265458500
   13        0.0568429900
   14       -0.0000000000
   15        0.3840828600
   16        0.0090920100
   17       -0.0194688400
   18       -0.0000000000
   19        0.0000000000
   20        0.0000000000
   21       -0.0000000000
   22        0.0000000000
   23        0.0000000000
 Ene=          1.15842000
 Spin= Alpha
 Occup=        0.00000000
    1        0.1904980300
    2        0.6983774800
    3        0.0000000000
    4       -0.0000000000
    5        0.0000000000
    6       -2.8277454300
    7       -0.0000000000
    8        0.0000000000
    9       -0.0000000000
   10       -1.4526294500
   11        0.0000000000
   12       -0.0000000000
   13        0.0000000000
   14        0.5083926800
   15       -0.0000000000
   16        0.0000000000
   17        0.0000000000
   18        1.6715625000
   19        1.6715625000
   20        1.6715625000
   21        0.0000000000
   22       -0.0000000000
   23        0.0000000000
 Ene=          9.31383000
 Spin= Alpha
 Occup=        0.00000000
    1       -1.9158859000
    2        2.5816032400
    3        0.0000000000
    4       -0.0000000000
    5       -0.0000000000
    6       -2.0723920300
    7        0.0000000000
    8       -0.0000000000
    9        0.0000000000
   10       -0.3872657600
   11        0.0000000000
   12       -0.0000000000
   13       -0.0000000000
   14        0.1526245400
   15        0.0000000000
   16       -0.0000000000
   17        0.0000000000
   18        0.8944770600
   19        0.8944770600
   20        0.8944770600
   21       -0.0000000000
   22        0.0000000000
   23        0.0000000000

