[Molden Format]
[Title]
 Molden2AIM, Version 3.1.0 (02/25/2015)           Time: Mon Dec  2 17:41:10 2024

[Atoms] AU
E+       1       4     0.00000000     0.00000000     0.00000000
[GTO]
    1 0
 S   1 1.0
    0.1000000000D-03      0.1000000000D+01
 S   1 1.0
    0.3000000000D-03      0.1000000000D+01
 S   1 1.0
    0.9000000000D-03      0.1000000000D+01
 S   1 1.0
    0.2700000000D-02      0.1000000000D+01
 S   1 1.0
    0.8100000000D-02      0.1000000000D+01
 S   1 1.0
    0.2430000000D-01      0.1000000000D+01
 S   1 1.0
    0.7290000000D-01      0.1000000000D+01
 S   1 1.0
    0.2187000000D+00      0.1000000000D+01
 S   1 1.0
    0.6561000000D+00      0.1000000000D+01
 S   1 1.0
    0.1968300000D+01      0.1000000000D+01
 P   1 1.0
    0.1000000000D-03      0.1000000000D+01
 P   1 1.0
    0.3000000000D-03      0.1000000000D+01
 P   1 1.0
    0.9000000000D-03      0.1000000000D+01
 P   1 1.0
    0.2700000000D-02      0.1000000000D+01
 D   1 1.0
    0.1000000000D-03      0.1000000000D+01
 D   1 1.0
    0.3000000000D-03      0.1000000000D+01


[MO]
 Ene=         -0.00391962
 Spin= Alpha
 Occup=        1.00000000
    1       -0.0552179300
    2       -0.0353308200
    3       -0.0374186400
    4       -0.3658217400
    5       -0.3318624500
    6       -0.4207475800
    7        0.0202652900
    8        0.0763275700
    9        0.0042934900
   10        0.0027347300
   11       -0.0000000000
   12        0.0000000000
   13        0.0000000000
   14        0.0000000000
   15       -0.0000000000
   16        0.0000000000
   17       -0.0000000000
   18        0.0000000000
   19        0.0000000000
   20        0.0000000000
   21       -0.0000000000
   22       -0.0000000000
   23        0.0082966400
   24        0.0082966400
   25        0.0082966400
   26       -0.0000000000
   27       -0.0000000000
   28        0.0000000000
   29        0.0229472800
   30        0.0229472800
   31        0.0229472800
   32       -0.0000000000
   33        0.0000000000
   34       -0.0000000000
 Ene=          0.00008430
 Spin= Alpha
 Occup=        0.00000000
    1        2.1920804400
    2       -0.7303318700
    3       -0.1906094800
    4        0.0614308500
    5        0.0023311300
    6        0.0168136800
    7       -0.0014881400
    8       -0.0022567200
    9       -0.0002052800
   10       -0.0000778000
   11        0.0000000000
   12       -0.0000000000
   13        0.0000000000
   14       -0.0000000000
   15        0.0000000000
   16        0.0000000000
   17        0.0000000000
   18       -0.0000000000
   19       -0.0000000000
   20        0.0000000000
   21        0.0000000000
   22        0.0000000000
   23       -0.8506264200
   24       -0.8506264200
   25       -0.8506264200
   26        0.0000000000
   27       -0.0000000000
   28       -0.0000000000
   29       -0.3980607100
   30       -0.3980607100
   31       -0.3980607100
   32        0.0000000000
   33       -0.0000000000
   34       -0.0000000000
 Ene=          0.00022558
 Spin= Alpha
 Occup=        0.00000000
    1       -0.0000000000
    2        0.0000000000
    3       -0.0000000000
    4        0.0000000000
    5       -0.0000000000
    6        0.0000000000
    7       -0.0000000000
    8        0.0000000000
    9       -0.0000000000
   10       -0.0000000000
   11        1.1864958100
   12       -0.0244423600
   13        0.0006277600
   14       -0.3221166100
   15        0.0066357500
   16       -0.0001704300
   17        0.0797373500
   18       -0.0016426300
   19        0.0000421900
   20       -0.0148544300
   21        0.0003060100
   22       -0.0000078600
   23        0.0000000000
   24       -0.0000000000
   25        0.0000000000
   26       -0.0000000000
   27       -0.0000000000
   28        0.0000000000
   29       -0.0000000000
   30        0.0000000000
   31       -0.0000000000
   32        0.0000000000
   33        0.0000000000
   34       -0.0000000000
 Ene=          0.00022558
 Spin= Alpha
 Occup=        0.00000000
    1        0.0000000000
    2       -0.0000000000
    3       -0.0000000000
    4       -0.0000000000
    5        0.0000000000
    6       -0.0000000000
    7        0.0000000000
    8        0.0000000000
    9       -0.0000000000
   10        0.0000000000
   11        0.0244503700
   12        1.1860384300
   13       -0.0329416000
   14       -0.0066379200
   15       -0.3219924400
   16        0.0089431700
   17        0.0016431600
   18        0.0797066100
   19       -0.0022138100
   20       -0.0003061100
   21       -0.0148487000
   22        0.0004124200
   23       -0.0000000000
   24        0.0000000000
   25       -0.0000000000
   26        0.0000000000
   27       -0.0000000000
   28       -0.0000000000
   29       -0.0000000000
   30       -0.0000000000
   31       -0.0000000000
   32       -0.0000000000
   33       -0.0000000000
   34        0.0000000000
 Ene=          0.00022558
 Spin= Alpha
 Occup=        0.00000000
    1       -0.0000000000
    2        0.0000000000
    3        0.0000000000
    4        0.0000000000
    5        0.0000000000
    6        0.0000000000
    7       -0.0000000000
    8       -0.0000000000
    9        0.0000000000
   10       -0.0000000000
   11        0.0000510900
   12        0.0329475500
   13        1.1862902600
   14       -0.0000138700
   15       -0.0089447900
   16       -0.3220608000
   17        0.0000034300
   18        0.0022142100
   19        0.0797235300
   20       -0.0000006400
   21       -0.0004124900
   22       -0.0148518600
   23        0.0000000000
   24        0.0000000000
   25        0.0000000000
   26       -0.0000000000
   27        0.0000000000
   28       -0.0000000000
   29        0.0000000000
   30        0.0000000000
   31        0.0000000000
   32        0.0000000000
   33        0.0000000000
   34       -0.0000000000
 Ene=          0.00033085
 Spin= Alpha
 Occup=        0.00000000
    1        0.0000000000
    2       -0.0000000000
    3       -0.0000000000
    4        0.0000000000
    5       -0.0000000000
    6       -0.0000000000
    7       -0.0000000000
    8        0.0000000000
    9        0.0000000000
   10        0.0000000000
   11        0.0000000000
   12        0.0000000000
   13        0.0000000000
   14       -0.0000000000
   15       -0.0000000000
   16       -0.0000000000
   17       -0.0000000000
   18        0.0000000000
   19        0.0000000000
   20        0.0000000000
   21       -0.0000000000
   22        0.0000000000
   23       -0.9842414700
   24        0.0721902300
   25        0.9120512500
   26       -0.0158833900
   27        0.0405397700
   28       -0.0018481100
   29        0.1606122500
   30       -0.0117802700
   31       -0.1488319700
   32        0.0025919100
   33       -0.0066154300
   34        0.0003015800
 Ene=          0.00033085
 Spin= Alpha
 Occup=        0.00000000
    1       -0.0000000000
    2        0.0000000000
    3        0.0000000000
    4       -0.0000000000
    5        0.0000000000
    6       -0.0000000000
    7        0.0000000000
    8       -0.0000000000
    9        0.0000000000
   10       -0.0000000000
   11       -0.0000000000
   12        0.0000000000
   13       -0.0000000000
   14       -0.0000000000
   15       -0.0000000000
   16        0.0000000000
   17        0.0000000000
   18        0.0000000000
   19       -0.0000000000
   20       -0.0000000000
   21       -0.0000000000
   22        0.0000000000
   23        0.4845965200
   24       -1.0942466000
   25        0.6096500800
   26        0.0408286000
   27        0.0130496600
   28       -0.0364271600
   29       -0.0790782900
   30        0.1785633000
   31       -0.0994850100
   32       -0.0066625600
   33       -0.0021294900
   34        0.0059443200
 Ene=          0.00033085
 Spin= Alpha
 Occup=        0.00000000
    1        0.0000000000
    2       -0.0000000000
    3       -0.0000000000
    4        0.0000000000
    5       -0.0000000000
    6       -0.0000000000
    7       -0.0000000000
    8        0.0000000000
    9       -0.0000000000
   10        0.0000000000
   11       -0.0000000000
   12        0.0000000000
   13       -0.0000000000
   14       -0.0000000000
   15       -0.0000000000
   16        0.0000000000
   17        0.0000000000
   18        0.0000000000
   19        0.0000000000
   20       -0.0000000000
   21       -0.0000000000
   22       -0.0000000000
   23        0.0350896600
   24       -0.0215707800
   25       -0.0135188800
   26       -0.1066741400
   27        0.7889607900
   28        0.7554212300
   29       -0.0057260600
   30        0.0035200000
   31        0.0022060600
   32        0.0174074900
   33       -0.1287456100
   34       -0.1232724900
 Ene=          0.00033085
 Spin= Alpha
 Occup=        0.00000000
    1       -0.0000000000
    2        0.0000000000
    3       -0.0000000000
    4        0.0000000000
    5        0.0000000000
    6        0.0000000000
    7       -0.0000000000
    8       -0.0000000000
    9        0.0000000000
   10       -0.0000000000
   11        0.0000000000
   12       -0.0000000000
   13        0.0000000000
   14       -0.0000000000
   15        0.0000000000
   16       -0.0000000000
   17        0.0000000000
   18       -0.0000000000
   19       -0.0000000000
   20       -0.0000000000
   21        0.0000000000
   22       -0.0000000000
   23       -0.0268738200
   24        0.0447541500
   25       -0.0178803300
   26        1.0774145100
   27        0.1997017000
   28       -0.0549540400
   29        0.0043853700
   30       -0.0073031500
   31        0.0029177800
   32       -0.1758165700
   33       -0.0325880800
   34        0.0089676100
 Ene=          0.00033085
 Spin= Alpha
 Occup=        0.00000000
    1       -0.0000000000
    2        0.0000000000
    3        0.0000000000
    4       -0.0000000000
    5        0.0000000000
    6       -0.0000000000
    7        0.0000000000
    8       -0.0000000000
    9       -0.0000000000
   10        0.0000000000
   11       -0.0000000000
   12       -0.0000000000
   13        0.0000000000
   14        0.0000000000
   15        0.0000000000
   16       -0.0000000000
   17       -0.0000000000
   18       -0.0000000000
   19       -0.0000000000
   20        0.0000000000
   21        0.0000000000
   22        0.0000000000
   23       -0.0152995800
   24       -0.0264072500
   25        0.0417068400
   26        0.1778538200
   27       -0.7359340700
   28        0.7941921100
   29        0.0024966400
   30        0.0043092400
   31       -0.0068058800
   32       -0.0290228600
   33        0.1200925100
   34       -0.1295992700
 Ene=          0.00036108
 Spin= Alpha
 Occup=        0.00000000
    1       -7.1526519800
    2        1.9852289800
    3        0.5664491500
    4       -0.0436857800
    5        0.0517600300
    6        0.0224389400
    7        0.0007897700
    8       -0.0059479700
    9       -0.0001504600
   10       -0.0002178200
   11       -0.0000000000
   12        0.0000000000
   13       -0.0000000000
   14        0.0000000000
   15       -0.0000000000
   16       -0.0000000000
   17       -0.0000000000
   18       -0.0000000000
   19        0.0000000000
   20        0.0000000000
   21        0.0000000000
   22       -0.0000000000
   23        1.5763638300
   24        1.5763638300
   25        1.5763638300
   26       -0.0000000000
   27        0.0000000000
   28        0.0000000000
   29        0.9511561900
   30        0.9511561900
   31        0.9511561900
   32        0.0000000000
   33       -0.0000000000
   34       -0.0000000000
 Ene=          0.00093390
 Spin= Alpha
 Occup=        0.00000000
    1        0.0000000000
    2       -0.0000000000
    3       -0.0000000000
    4        0.0000000000
    5        0.0000000000
    6        0.0000000000
    7       -0.0000000000
    8        0.0000000000
    9       -0.0000000000
   10        0.0000000000
   11        0.8798066900
   12       -0.0007353900
   13       -0.0038960300
   14       -1.6501000600
   15        0.0013792400
   16        0.0073071000
   17        0.3348469400
   18       -0.0002798800
   19       -0.0014828000
   20       -0.0659639500
   21        0.0000551400
   22        0.0002921100
   23       -0.0000000000
   24       -0.0000000000
   25       -0.0000000000
   26        0.0000000000
   27       -0.0000000000
   28       -0.0000000000
   29       -0.0000000000
   30       -0.0000000000
   31       -0.0000000000
   32       -0.0000000000
   33        0.0000000000
   34       -0.0000000000
 Ene=          0.00093390
 Spin= Alpha
 Occup=        0.00000000
    1       -0.0000000000
    2        0.0000000000
    3        0.0000000000
    4       -0.0000000000
    5        0.0000000000
    6       -0.0000000000
    7       -0.0000000000
    8        0.0000000000
    9       -0.0000000000
   10        0.0000000000
   11        0.0007217000
   12        0.8798099000
   13       -0.0030904500
   14       -0.0013535700
   15       -1.6501060800
   16        0.0057962300
   17        0.0002746700
   18        0.3348481600
   19       -0.0011762000
   20       -0.0000541100
   21       -0.0659641900
   22        0.0002317100
   23        0.0000000000
   24        0.0000000000
   25        0.0000000000
   26       -0.0000000000
   27        0.0000000000
   28       -0.0000000000
   29        0.0000000000
   30        0.0000000000
   31        0.0000000000
   32        0.0000000000
   33       -0.0000000000
   34        0.0000000000
 Ene=          0.00093390
 Spin= Alpha
 Occup=        0.00000000
    1       -0.0000000000
    2        0.0000000000
    3        0.0000000000
    4       -0.0000000000
    5        0.0000000000
    6       -0.0000000000
    7        0.0000000000
    8        0.0000000000
    9        0.0000000000
   10        0.0000000000
   11       -0.0038985900
   12       -0.0030872300
   13       -0.8798015700
   14        0.0073119000
   15        0.0057901700
   16        1.6500904500
   17       -0.0014837700
   18       -0.0011749700
   19       -0.3348449900
   20        0.0002923000
   21        0.0002314700
   22        0.0659635700
   23        0.0000000000
   24        0.0000000000
   25        0.0000000000
   26        0.0000000000
   27       -0.0000000000
   28        0.0000000000
   29        0.0000000000
   30        0.0000000000
   31        0.0000000000
   32        0.0000000000
   33        0.0000000000
   34        0.0000000000
 Ene=          0.00094097
 Spin= Alpha
 Occup=        0.00000000
    1      -10.5927130700
    2        3.4115226600
    3        0.9777883300
    4       -0.2849932700
    5        0.0021487600
    6       -0.0641932100
    7        0.0063050000
    8        0.0078954200
    9        0.0008124900
   10        0.0002687400
   11        0.0000000000
   12       -0.0000000000
   13        0.0000000000
   14       -0.0000000000
   15        0.0000000000
   16       -0.0000000000
   17        0.0000000000
   18       -0.0000000000
   19        0.0000000000
   20       -0.0000000000
   21        0.0000000000
   22       -0.0000000000
   23        1.7686792700
   24        1.7686792700
   25        1.7686792700
   26        0.0000000000
   27       -0.0000000000
   28       -0.0000000000
   29        2.1826650000
   30        2.1826650000
   31        2.1826650000
   32       -0.0000000000
   33        0.0000000000
   34        0.0000000000
 Ene=          0.00127060
 Spin= Alpha
 Occup=        0.00000000
    1        0.0000000000
    2       -0.0000000000
    3       -0.0000000000
    4       -0.0000000000
    5        0.0000000000
    6        0.0000000000
    7        0.0000000000
    8       -0.0000000000
    9        0.0000000000
   10       -0.0000000000
   11       -0.0000000000
   12       -0.0000000000
   13        0.0000000000
   14        0.0000000000
   15        0.0000000000
   16        0.0000000000
   17       -0.0000000000
   18       -0.0000000000
   19       -0.0000000000
   20        0.0000000000
   21        0.0000000000
   22        0.0000000000
   23       -0.3844176700
   24       -0.2156773000
   25        0.6000949700
   26        0.0123209300
   27       -0.0048919100
   28       -0.0122180000
   29        0.7852489300
   30        0.4405634300
   31       -1.2258123600
   32       -0.0251679200
   33        0.0099927000
   34        0.0249576700
 Ene=          0.00127060
 Spin= Alpha
 Occup=        0.00000000
    1       -0.0000000000
    2        0.0000000000
    3       -0.0000000000
    4        0.0000000000
    5       -0.0000000000
    6        0.0000000000
    7       -0.0000000000
    8        0.0000000000
    9       -0.0000000000
   10        0.0000000000
   11       -0.0000000000
   12        0.0000000000
   13        0.0000000000
   14        0.0000000000
   15       -0.0000000000
   16       -0.0000000000
   17       -0.0000000000
   18        0.0000000000
   19        0.0000000000
   20        0.0000000000
   21       -0.0000000000
   22       -0.0000000000
   23        0.0741301400
   24       -0.0734794200
   25       -0.0006507200
   26        0.5926869000
   27       -0.0531895100
   28       -0.0925198200
   29       -0.1514254400
   30        0.1500962200
   31        0.0013292200
   32       -1.2106799200
   33        0.1086500700
   34        0.1889899900
 Ene=          0.00127060
 Spin= Alpha
 Occup=        0.00000000
    1        0.0000000000
    2       -0.0000000000
    3        0.0000000000
    4       -0.0000000000
    5        0.0000000000
    6        0.0000000000
    7        0.0000000000
    8       -0.0000000000
    9        0.0000000000
   10       -0.0000000000
   11        0.0000000000
   12       -0.0000000000
   13       -0.0000000000
   14       -0.0000000000
   15        0.0000000000
   16        0.0000000000
   17        0.0000000000
   18       -0.0000000000
   19       -0.0000000000
   20       -0.0000000000
   21        0.0000000000
   22        0.0000000000
   23       -0.2049293400
   24        0.2382036000
   25       -0.0332742500
   26        0.1305847700
   27        0.3650046300
   28        0.3912627700
   29        0.4186086100
   30       -0.4865778400
   31        0.0679692300
   32       -0.2667451500
   33       -0.7455939500
   34       -0.7992314000
 Ene=          0.00127060
 Spin= Alpha
 Occup=        0.00000000
    1        0.0000000000
    2       -0.0000000000
    3        0.0000000000
    4        0.0000000000
    5        0.0000000000
    6        0.0000000000
    7        0.0000000000
    8       -0.0000000000
    9       -0.0000000000
   10       -0.0000000000
   11       -0.0000000000
   12        0.0000000000
   13       -0.0000000000
   14        0.0000000000
   15       -0.0000000000
   16        0.0000000000
   17       -0.0000000000
   18       -0.0000000000
   19       -0.0000000000
   20        0.0000000000
   21       -0.0000000000
   22        0.0000000000
   23       -0.4178685000
   24        0.5111350300
   25       -0.0932665300
   26        0.0293673900
   27       -0.1764947800
   28       -0.2038040100
   29        0.8535788500
   30       -1.0440941400
   31        0.1905152900
   32       -0.0599886800
   33        0.3605254100
   34        0.4163098900
 Ene=          0.00127060
 Spin= Alpha
 Occup=        0.00000000
    1        0.0000000000
    2        0.0000000000
    3       -0.0000000000
    4        0.0000000000
    5       -0.0000000000
    6        0.0000000000
    7       -0.0000000000
    8        0.0000000000
    9        0.0000000000
   10       -0.0000000000
   11       -0.0000000000
   12        0.0000000000
   13        0.0000000000
   14        0.0000000000
   15       -0.0000000000
   16       -0.0000000000
   17       -0.0000000000
   18        0.0000000000
   19        0.0000000000
   20        0.0000000000
   21       -0.0000000000
   22       -0.0000000000
   23       -0.0069098600
   24        0.0037674000
   25        0.0031424600
   26        0.0242011600
   27       -0.4502202300
   28        0.4081645100
   29        0.0141147500
   30       -0.0076956600
   31       -0.0064190900
   32       -0.0494356500
   33        0.9196636300
   34       -0.8337565300
 Ene=          0.00212074
 Spin= Alpha
 Occup=        0.00000000
    1      -10.1151511900
    2       -1.8477555600
    3        3.0719187600
    4       -0.2561404700
    5        0.1880885600
    6        0.0508473000
    7        0.0054503400
    8       -0.0172602000
    9       -0.0001904400
   10       -0.0006386500
   11       -0.0000000000
   12        0.0000000000
   13       -0.0000000000
   14       -0.0000000000
   15       -0.0000000000
   16        0.0000000000
   17       -0.0000000000
   18        0.0000000000
   19       -0.0000000000
   20       -0.0000000000
   21       -0.0000000000
   22        0.0000000000
   23        1.4888231300
   24        1.4888231300
   25        1.4888231300
   26       -0.0000000000
   27       -0.0000000000
   28       -0.0000000000
   29        3.6109874300
   30        3.6109874300
   31        3.6109874300
   32        0.0000000000
   33        0.0000000000
   34        0.0000000000
 Ene=          0.00306604
 Spin= Alpha
 Occup=        0.00000000
    1        0.0000000000
    2        0.0000000000
    3       -0.0000000000
    4        0.0000000000
    5       -0.0000000000
    6        0.0000000000
    7        0.0000000000
    8       -0.0000000000
    9        0.0000000000
   10       -0.0000000000
   11       -0.0139318800
   12        0.4655922600
   13       -0.0159319300
   14        0.0401978200
   15       -1.3433785600
   16        0.0459685700
   17       -0.0516659400
   18        1.7266338700
   19       -0.0590830400
   20        0.0067674700
   21       -0.2261633700
   22        0.0077390000
   23       -0.0000000000
   24       -0.0000000000
   25       -0.0000000000
   26        0.0000000000
   27       -0.0000000000
   28       -0.0000000000
   29       -0.0000000000
   30       -0.0000000000
   31       -0.0000000000
   32        0.0000000000
   33        0.0000000000
   34        0.0000000000
 Ene=          0.00306604
 Spin= Alpha
 Occup=        0.00000000
    1       -0.0000000000
    2        0.0000000000
    3        0.0000000000
    4       -0.0000000000
    5        0.0000000000
    6       -0.0000000000
    7        0.0000000000
    8       -0.0000000000
    9       -0.0000000000
   10        0.0000000000
   11        0.4655693200
   12        0.0133473400
   13       -0.0170626300
   14       -1.3433123700
   15       -0.0385112300
   16        0.0492309900
   17        1.7265487900
   18        0.0494981700
   19       -0.0632762000
   20       -0.2261522300
   21       -0.0064835300
   22        0.0082882400
   23        0.0000000000
   24        0.0000000000
   25        0.0000000000
   26       -0.0000000000
   27       -0.0000000000
   28        0.0000000000
   29       -0.0000000000
   30        0.0000000000
   31        0.0000000000
   32       -0.0000000000
   33        0.0000000000
   34       -0.0000000000
 Ene=          0.00306604
 Spin= Alpha
 Occup=        0.00000000
    1        0.0000000000
    2        0.0000000000
    3       -0.0000000000
    4        0.0000000000
    5       -0.0000000000
    6        0.0000000000
    7       -0.0000000000
    8        0.0000000000
    9       -0.0000000000
   10        0.0000000000
   11       -0.0165887700
   12       -0.0164247500
   13       -0.4654880400
   14        0.0478637600
   15        0.0473905100
   16        1.3430778600
   17       -0.0615189100
   18       -0.0609106500
   19       -1.7262473800
   20        0.0080580600
   21        0.0079783900
   22        0.2261127500
   23       -0.0000000000
   24       -0.0000000000
   25       -0.0000000000
   26        0.0000000000
   27       -0.0000000000
   28        0.0000000000
   29       -0.0000000000
   30       -0.0000000000
   31       -0.0000000000
   32       -0.0000000000
   33        0.0000000000
   34       -0.0000000000
 Ene=          0.00505696
 Spin= Alpha
 Occup=        0.00000000
    1        6.9834020000
    2        5.5331727300
    3       -7.2772398500
    4        2.0325227000
    5       -0.1791640800
    6        0.2357078300
    7       -0.0317891900
    8       -0.0187848300
    9       -0.0033547300
   10       -0.0005882300
   11        0.0000000000
   12       -0.0000000000
   13        0.0000000000
   14       -0.0000000000
   15        0.0000000000
   16       -0.0000000000
   17        0.0000000000
   18       -0.0000000000
   19       -0.0000000000
   20       -0.0000000000
   21       -0.0000000000
   22        0.0000000000
   23       -0.9914591300
   24       -0.9914591300
   25       -0.9914591300
   26        0.0000000000
   27        0.0000000000
   28        0.0000000000
   29       -3.2673006900
   30       -3.2673006900
   31       -3.2673006900
   32       -0.0000000000
   33       -0.0000000000
   34       -0.0000000000
 Ene=          0.00922583
 Spin= Alpha
 Occup=        0.00000000
    1        0.0000000000
    2       -0.0000000000
    3        0.0000000000
    4        0.0000000000
    5       -0.0000000000
    6        0.0000000000
    7       -0.0000000000
    8        0.0000000000
    9        0.0000000000
   10        0.0000000000
   11        0.2291316200
   12       -0.0050851900
   13       -0.0133980000
   14       -0.7120713100
   15        0.0158032300
   16        0.0416369200
   17        1.4248721700
   18       -0.0316226500
   19       -0.0833164900
   20       -1.5450601500
   21        0.0342900200
   22        0.0903442400
   23        0.0000000000
   24       -0.0000000000
   25       -0.0000000000
   26       -0.0000000000
   27        0.0000000000
   28       -0.0000000000
   29       -0.0000000000
   30        0.0000000000
   31       -0.0000000000
   32       -0.0000000000
   33        0.0000000000
   34        0.0000000000
 Ene=          0.00922583
 Spin= Alpha
 Occup=        0.00000000
    1        0.0000000000
    2       -0.0000000000
    3       -0.0000000000
    4        0.0000000000
    5       -0.0000000000
    6       -0.0000000000
    7        0.0000000000
    8        0.0000000000
    9        0.0000000000
   10       -0.0000000000
   11       -0.0133959800
   12        0.0002395900
   13       -0.2291880400
   14        0.0416306400
   15       -0.0007445700
   16        0.7122466300
   17       -0.0833039400
   18        0.0014899100
   19       -1.4252229900
   20        0.0903306200
   21       -0.0016155800
   22        1.5454405600
   23       -0.0000000000
   24       -0.0000000000
   25       -0.0000000000
   26       -0.0000000000
   27        0.0000000000
   28        0.0000000000
   29       -0.0000000000
   30       -0.0000000000
   31       -0.0000000000
   32        0.0000000000
   33        0.0000000000
   34       -0.0000000000
 Ene=          0.00922583
 Spin= Alpha
 Occup=        0.00000000
    1       -0.0000000000
    2       -0.0000000000
    3        0.0000000000
    4       -0.0000000000
    5        0.0000000000
    6       -0.0000000000
    7        0.0000000000
    8       -0.0000000000
    9        0.0000000000
   10       -0.0000000000
   11       -0.0050905100
   12       -0.2295228700
   13        0.0000576000
   14        0.0158197400
   15        0.7132872000
   16       -0.0001790000
   17       -0.0316557000
   18       -1.4273052000
   19        0.0003581900
   20        0.0343258600
   21        1.5476984000
   22       -0.0003884000
   23        0.0000000000
   24       -0.0000000000
   25       -0.0000000000
   26       -0.0000000000
   27       -0.0000000000
   28        0.0000000000
   29       -0.0000000000
   30        0.0000000000
   31        0.0000000000
   32       -0.0000000000
   33        0.0000000000
   34       -0.0000000000
 Ene=          0.01518250
 Spin= Alpha
 Occup=        0.00000000
    1       -3.8130422800
    2       -3.7131945400
    3        5.8786367000
    4       -4.5582754400
    5        2.2191678900
    6       -0.1431504200
    7        0.1058808400
    8       -0.0815847600
    9        0.0051146800
   10       -0.0031678900
   11        0.0000000000
   12        0.0000000000
   13       -0.0000000000
   14        0.0000000000
   15       -0.0000000000
   16        0.0000000000
   17       -0.0000000000
   18        0.0000000000
   19       -0.0000000000
   20       -0.0000000000
   21       -0.0000000000
   22        0.0000000000
   23        0.5434963900
   24        0.5434963900
   25        0.5434963900
   26       -0.0000000000
   27       -0.0000000000
   28       -0.0000000000
   29        1.8696085000
   30        1.8696085000
   31        1.8696085000
   32        0.0000000000
   33        0.0000000000
   34        0.0000000000
 Ene=          0.05366130
 Spin= Alpha
 Occup=        0.00000000
    1       -1.9172410800
    2       -1.8295430100
    3        3.0470734100
    4       -3.2113796500
    5        3.9911423700
    6       -2.8743289000
    7        0.5354039200
    8       -0.0327429600
    9        0.0406326500
   10       -0.0025771400
   11       -0.0000000000
   12        0.0000000000
   13       -0.0000000000
   14        0.0000000000
   15       -0.0000000000
   16        0.0000000000
   17       -0.0000000000
   18        0.0000000000
   19       -0.0000000000
   20       -0.0000000000
   21       -0.0000000000
   22        0.0000000000
   23        0.2751012600
   24        0.2751012600
   25        0.2751012600
   26        0.0000000000
   27       -0.0000000000
   28       -0.0000000000
   29        0.9283719100
   30        0.9283719100
   31        0.9283719100
   32       -0.0000000000
   33        0.0000000000
   34        0.0000000000
 Ene=          0.20739200
 Spin= Alpha
 Occup=        0.00000000
    1       -0.8966394300
    2       -0.8310829100
    3        1.3871327700
    4       -1.4942202600
    5        2.3110914300
    6       -3.4647699000
    7        3.3086426300
    8       -1.0207516100
    9        0.1323480500
   10       -0.0358108200
   11       -0.0000000000
   12        0.0000000000
   13        0.0000000000
   14        0.0000000000
   15       -0.0000000000