 Molden2AIM, Version 3.1.0 (02/25/2015)           Time: Mon Dec  2 17:19:51 2024
GAUSSIAN             23 MOL ORBITALS     36 PRIMITIVES        1 NUCLEI
  Be   1    (CENTRE  1)   0.00000000  0.00000000  0.00000000  CHARGE =  4.0
CENTRE ASSIGNMENTS    1  1  1  1  1  1  1  1  1  1  1  1  1  1  1  1  1  1  1  1
CENTRE ASSIGNMENTS    1  1  1  1  1  1  1  1  1  1  1  1  1  1  1  1
TYPE ASSIGNMENTS      1  1  1  1  1  1  1  1  1  2  2  2  3  3  3  4  4  4  1  2
TYPE ASSIGNMENTS      3  4  1  2  3  4  1  2  3  4  5  6  7  8  9 10
EXPONENTS  0.1682800D+04 0.2517150D+03 0.5741160D+02 0.1651710D+02 0.4853640D+01
EXPONENTS  0.6268630D+00 0.8309380D+01 0.1740750D+01 0.4858160D+00 0.8309380D+01
EXPONENTS  0.1740750D+01 0.4858160D+00 0.8309380D+01 0.1740750D+01 0.4858160D+00
EXPONENTS  0.8309380D+01 0.1740750D+01 0.4858160D+00 0.1636130D+00 0.1636130D+00
EXPONENTS  0.1636130D+00 0.1636130D+00 0.5672850D-01 0.5672850D-01 0.5672850D-01
EXPONENTS  0.5672850D-01 0.2070000D-01 0.2070000D-01 0.2070000D-01 0.2070000D-01
EXPONENTS  0.2550000D+00 0.2550000D+00 0.2550000D+00 0.2550000D+00 0.2550000D+00
EXPONENTS  0.2550000D+00
MO    1     MO 0.0        OCC NO =    2.0000000  ORB. ENERGY =   -4.136540
  0.25518793D+00  0.47244406D+00  0.76511716D+00  0.98119244D+00  0.89010749D+00
  0.43247106D-01  0.16485364D+00  0.43579405D+00 -0.53624793D-03  0.00000000D+00
  0.00000000D+00  0.00000000D+00  0.00000000D+00  0.00000000D+00  0.00000000D+00
 -0.00000000D+00 -0.00000000D+00 -0.00000000D+00  0.61772908D-02  0.00000000D+00
 -0.00000000D+00 -0.00000000D+00  0.21637776D-03  0.00000000D+00  0.00000000D+00
  0.00000000D+00 -0.49898493D-04  0.00000000D+00 -0.00000000D+00 -0.00000000D+00
 -0.18236381D-02 -0.18236381D-02 -0.18236381D-02 -0.00000000D+00  0.00000000D+00
  0.00000000D+00
MO    2     MO 0.0        OCC NO =    2.0000000  ORB. ENERGY =   -0.269243
  0.50493672D-01  0.93481834D-01  0.15139264D+00  0.19414715D+00  0.17612430D+00
  0.85572433D-02  0.67897193D-01  0.17948766D+00 -0.22086094D-03 -0.00000000D+00
 -0.00000000D+00 -0.00000000D+00  0.00000000D+00  0.00000000D+00  0.00000000D+00
  0.00000000D+00  0.00000000D+00  0.00000000D+00 -0.11177539D+00 -0.00000000D+00
  0.00000000D+00  0.00000000D+00 -0.26183185D-01 -0.00000000D+00 -0.00000000D+00
 -0.00000000D+00 -0.98418141D-02 -0.00000000D+00  0.00000000D+00  0.00000000D+00
  0.17706971D-02  0.17706971D-02  0.17706971D-02 -0.00000000D+00 -0.00000000D+00
  0.00000000D+00
MO    3     MO 0.0        OCC NO =    0.0000000  ORB. ENERGY =   -0.153243
 -0.00000000D+00 -0.00000000D+00 -0.00000000D+00 -0.00000000D+00 -0.00000000D+00
 -0.00000000D+00 -0.00000000D+00 -0.00000000D+00  0.00000000D+00 -0.30902255D-01
 -0.26296910D-01 -0.20697951D-01 -0.77649915D-03 -0.66077794D-03 -0.52008960D-03
 -0.12344666D-02 -0.10504948D-02 -0.82683057D-03 -0.00000000D+00 -0.32198935D-01
 -0.80907947D-03 -0.12862655D-02  0.00000000D+00  0.17272020D-01  0.43400306D-03
  0.68997287D-03 -0.00000000D+00 -0.13728134D-01 -0.34495409D-03 -0.54840377D-03
 -0.00000000D+00 -0.00000000D+00 -0.00000000D+00 -0.00000000D+00  0.00000000D+00
  0.00000000D+00
MO    4     MO 0.0        OCC NO =    0.0000000  ORB. ENERGY =   -0.153243
  0.00000000D+00  0.00000000D+00  0.00000000D+00  0.00000000D+00  0.00000000D+00
  0.00000000D+00 -0.00000000D+00 -0.00000000D+00  0.00000000D+00 -0.57249382D-03
 -0.48717540D-03 -0.38344933D-03  0.30543758D-01  0.25991840D-01  0.20457834D-01
 -0.48813117D-02 -0.41538527D-02 -0.32694426D-02  0.00000000D+00 -0.59651589D-03
  0.31825398D-01 -0.50861312D-02 -0.00000000D+00  0.31998061D-03 -0.17071648D-01
  0.27282819D-02  0.00000000D+00 -0.25432662D-03  0.13568875D-01 -0.21684909D-02
  0.00000000D+00 -0.00000000D+00  0.00000000D+00  0.00000000D+00 -0.00000000D+00
 -0.00000000D+00
MO    5     MO 0.0        OCC NO =    0.0000000  ORB. ENERGY =   -0.153243
  0.00000000D+00  0.00000000D+00  0.00000000D+00  0.00000000D+00  0.00000000D+00
  0.00000000D+00  0.00000000D+00  0.00000000D+00 -0.00000000D+00  0.13413051D-02
  0.11414112D-02  0.89838968D-03 -0.48530379D-02 -0.41297925D-02 -0.32505052D-02
 -0.30524175D-01 -0.25975175D-01 -0.20444718D-01  0.00000000D+00  0.13975888D-02
 -0.50566740D-02 -0.31804988D-01 -0.00000000D+00 -0.74968929D-03  0.27124805D-02
  0.17060701D-01  0.00000000D+00  0.59586741D-03 -0.21559317D-02 -0.13560173D-01
  0.00000000D+00  0.00000000D+00  0.00000000D+00 -0.00000000D+00 -0.00000000D+00
  0.00000000D+00
MO    6     MO 0.0        OCC NO =    0.0000000  ORB. ENERGY =   -0.133162
  0.19698729D-01  0.36469388D-01  0.59061712D-01  0.75741217D-01  0.68710094D-01
  0.33383751D-02  0.33818239D-01  0.89399226D-01 -0.11000644D-03 -0.00000000D+00
 -0.00000000D+00 -0.00000000D+00  0.00000000D+00  0.00000000D+00  0.00000000D+00
  0.00000000D+00  0.00000000D+00  0.00000000D+00 -0.68753271D-02 -0.00000000D+00
  0.00000000D+00  0.00000000D+00 -0.13928519D+00  0.00000000D+00  0.00000000D+00
 -0.00000000D+00  0.73456706D-01 -0.00000000D+00  0.00000000D+00  0.00000000D+00
  0.11162944D-01  0.11162944D-01  0.11162944D-01  0.00000000D+00 -0.00000000D+00
  0.00000000D+00
MO    7     MO 0.0        OCC NO =    0.0000000  ORB. ENERGY =   -0.077157
 -0.00000000D+00 -0.00000000D+00 -0.00000000D+00 -0.00000000D+00 -0.00000000D+00
 -0.00000000D+00 -0.00000000D+00 -0.00000000D+00  0.00000000D+00 -0.14109383D+00
 -0.12006670D+00 -0.94502915D-01  0.32837926D-01  0.27944109D-01  0.21994440D-01
  0.12925199D+00  0.10998964D+00  0.86571394D-01  0.00000000D+00 -0.19813911D-01
  0.46114548D-02  0.18150952D-01  0.00000000D+00 -0.30870171D-01  0.71846688D-02
  0.28279274D-01 -0.00000000D+00  0.65538977D-02 -0.15253425D-02 -0.60038368D-02
 -0.00000000D+00  0.00000000D+00  0.00000000D+00  0.00000000D+00 -0.00000000D+00
  0.00000000D+00
MO    8     MO 0.0        OCC NO =    0.0000000  ORB. ENERGY =   -0.077157
  0.00000000D+00  0.00000000D+00  0.00000000D+00  0.00000000D+00  0.00000000D+00
  0.00000000D+00  0.00000000D+00  0.00000000D+00 -0.00000000D+00  0.12781140D+00
  0.10876374D+00  0.85606507D-01 -0.20405961D-01 -0.17364873D-01 -0.13667662D-01
  0.14470562D+00  0.12314023D+00  0.96922049D-01  0.00000000D+00  0.17948650D-01
 -0.28656243D-02  0.20321118D-01 -0.00000000D+00  0.27964085D-01 -0.44646572D-02
  0.31660401D-01  0.00000000D+00 -0.59369206D-02  0.94786992D-03 -0.67216678D-02
  0.00000000D+00  0.00000000D+00  0.00000000D+00 -0.00000000D+00  0.00000000D+00
  0.00000000D+00
MO    9     MO 0.0        OCC NO =    0.0000000  ORB. ENERGY =   -0.077157
 -0.00000000D+00 -0.00000000D+00 -0.00000000D+00 -0.00000000D+00 -0.00000000D+00
 -0.00000000D+00 -0.00000000D+00 -0.00000000D+00  0.00000000D+00 -0.38061160D-01
 -0.32388928D-01 -0.25492898D-01 -0.19025547D+00 -0.16190181D+00 -0.12743078D+00
  0.67882946D-02  0.57766391D-02  0.45467164D-02  0.00000000D+00 -0.53449571D-02
 -0.26717715D-01  0.95328481D-03 -0.00000000D+00 -0.83274690D-02 -0.41626333D-01
  0.14852228D-02  0.00000000D+00  0.17679650D-02  0.88374869D-02 -0.31532046D-03
  0.00000000D+00 -0.00000000D+00  0.00000000D+00  0.00000000D+00 -0.00000000D+00
 -0.00000000D+00
MO   10     MO 0.0        OCC NO =    0.0000000  ORB. ENERGY =    0.145446
  0.00000000D+00  0.00000000D+00  0.00000000D+00  0.00000000D+00  0.00000000D+00
  0.00000000D+00  0.00000000D+00  0.00000000D+00 -0.00000000D+00 -0.32911964D-01
 -0.28007113D-01 -0.22044029D-01 -0.10099481D-02 -0.85943613D-03 -0.67645084D-03
 -0.18044018D+00 -0.15354929D+00 -0.12085662D+00 -0.00000000D+00 -0.31944618D-01
 -0.98026352D-03 -0.17513672D+00  0.00000000D+00  0.12905950D-01  0.39603636D-03
  0.70757011D-01 -0.00000000D+00 -0.14909415D-02 -0.45751507D-04 -0.81741030D-02
 -0.00000000D+00 -0.00000000D+00 -0.00000000D+00  0.00000000D+00  0.00000000D+00
 -0.00000000D+00
MO   11     MO 0.0        OCC NO =    0.0000000  ORB. ENERGY =    0.145446
 -0.00000000D+00 -0.00000000D+00 -0.00000000D+00 -0.00000000D+00 -0.00000000D+00
 -0.00000000D+00 -0.00000000D+00 -0.00000000D+00  0.00000000D+00  0.16338435D+00
  0.13903528D+00  0.10943283D+00 -0.78013898D-01 -0.66387533D-01 -0.52252752D-01
 -0.29364356D-01 -0.24988204D-01 -0.19667886D-01  0.00000000D+00  0.15858218D+00
 -0.75720922D-01 -0.28501281D-01 -0.00000000D+00 -0.64068810D-01  0.30592022D-01
  0.11514807D-01  0.00000000D+00  0.74014582D-02 -0.35340997D-02 -0.13302316D-02
  0.00000000D+00  0.00000000D+00  0.00000000D+00  0.00000000D+00  0.00000000D+00
 -0.00000000D+00
MO   12     MO 0.0        OCC NO =    0.0000000  ORB. ENERGY =    0.145446
  0.00000000D+00  0.00000000D+00  0.00000000D+00  0.00000000D+00  0.00000000D+00
  0.00000000D+00  0.00000000D+00  0.00000000D+00 -0.00000000D+00 -0.76584829D-01
 -0.65171437D-01 -0.51295579D-01 -0.16599907D+00 -0.14126032D+00 -0.11118414D+00
  0.14898050D-01  0.12677802D-01  0.99785308D-02 -0.00000000D+00 -0.74333859D-01
 -0.16112005D+00  0.14460171D-01  0.00000000D+00  0.30031633D-01  0.65094135D-01
 -0.58420560D-02 -0.00000000D+00 -0.34693617D-02 -0.75199073D-02  0.67489517D-03
 -0.00000000D+00 -0.00000000D+00 -0.00000000D+00 -0.00000000D+00  0.00000000D+00
  0.00000000D+00
MO   13     MO 0.0        OCC NO =    0.0000000  ORB. ENERGY =    0.148709
 -0.49639739D-01 -0.91900898D-01 -0.14883234D+00 -0.19086380D+00 -0.17314574D+00
 -0.84125259D-02 -0.50430680D-01 -0.13331456D+00  0.16404459D-03 -0.00000000D+00
 -0.00000000D+00 -0.00000000D+00 -0.00000000D+00 -0.00000000D+00 -0.00000000D+00
 -0.00000000D+00 -0.00000000D+00 -0.00000000D+00  0.33732426D+00 -0.00000000D+00
  0.00000000D+00 -0.00000000D+00 -0.26291715D+00  0.00000000D+00 -0.00000000D+00
  0.00000000D+00  0.48047469D-01 -0.00000000D+00  0.00000000D+00 -0.00000000D+00
  0.33799542D-01  0.33799542D-01  0.33799542D-01 -0.00000000D+00 -0.00000000D+00
 -0.00000000D+00
MO   14     MO 0.0        OCC NO =    0.0000000  ORB. ENERGY =    0.491433
  0.00000000D+00  0.00000000D+00  0.00000000D+00  0.00000000D+00  0.00000000D+00
  0.00000000D+00 -0.00000000D+00 -0.00000000D+00  0.00000000D+00  0.00000000D+00
  0.00000000D+00  0.00000000D+00  0.00000000D+00  0.00000000D+00  0.00000000D+00
 -0.00000000D+00 -0.00000000D+00 -0.00000000D+00 -0.00000000D+00 -0.00000000D+00
 -0.00000000D+00  0.00000000D+00  0.00000000D+00  0.00000000D+00  0.00000000D+00
 -0.00000000D+00 -0.00000000D+00 -0.00000000D+00 -0.00000000D+00 -0.00000000D+00
 -0.24920811D-01  0.14081693D+00 -0.11589612D+00  0.16219342D-01 -0.47225076D-02
  0.56789213D-03
MO   15     MO 0.0        OCC NO =    0.0000000  ORB. ENERGY =    0.491433
 -0.00000000D+00 -0.00000000D+00 -0.00000000D+00 -0.00000000D+00 -0.00000000D+00
 -0.00000000D+00  0.00000000D+00  0.00000000D+00 -0.00000000D+00  0.00000000D+00
  0.00000000D+00  0.00000000D+00  0.00000000D+00  0.00000000D+00  0.00000000D+00
 -0.00000000D+00 -0.00000000D+00 -0.00000000D+00  0.00000000D+00 -0.00000000D+00
 -0.00000000D+00  0.00000000D+00 -0.00000000D+00 -0.00000000D+00 -0.00000000D+00
  0.00000000D+00  0.00000000D+00 -0.00000000D+00  0.00000000D+00 -0.00000000D+00
 -0.14569573D+00  0.50468327D-01  0.95227404D-01  0.34783291D-01 -0.30242051D-02
  0.33856786D-01
MO   16     MO 0.0        OCC NO =    0.0000000  ORB. ENERGY =    0.491433
  0.00000000D+00  0.00000000D+00  0.00000000D+00  0.00000000D+00  0.00000000D+00
  0.00000000D+00 -0.00000000D+00 -0.00000000D+00  0.00000000D+00  0.00000000D+00
  0.00000000D+00  0.00000000D+00 -0.00000000D+00 -0.00000000D+00 -0.00000000D+00
 -0.00000000D+00 -0.00000000D+00 -0.00000000D+00  0.00000000D+00  0.00000000D+00
  0.00000000D+00 -0.00000000D+00 -0.00000000D+00 -0.00000000D+00 -0.00000000D+00
  0.00000000D+00  0.00000000D+00  0.00000000D+00  0.00000000D+00 -0.00000000D+00
  0.19228153D-01 -0.69653243D-02 -0.12262829D-01 -0.28707201D-02  0.48066835D-02
  0.25861524D+00
MO   17     MO 0.0        OCC NO =    0.0000000  ORB. ENERGY =    0.491433
 -0.00000000D+00 -0.00000000D+00 -0.00000000D+00 -0.00000000D+00 -0.00000000D+00
 -0.00000000D+00  0.00000000D+00  0.00000000D+00 -0.00000000D+00  0.00000000D+00
  0.00000000D+00  0.00000000D+00 -0.00000000D+00 -0.00000000D+00 -0.00000000D+00
 -0.00000000D+00 -0.00000000D+00 -0.00000000D+00 -0.00000000D+00 -0.00000000D+00
  0.00000000D+00 -0.00000000D+00 -0.00000000D+00  0.00000000D+00 -0.00000000D+00
  0.00000000D+00  0.00000000D+00 -0.00000000D+00  0.00000000D+00 -0.00000000D+00
 -0.21024487D-01  0.15287860D-01  0.57366286D-02 -0.25652228D+00 -0.28717129D-01
  0.21801459D-02
MO   18     MO 0.0        OCC NO =    0.0000000  ORB. ENERGY =    0.491433
  0.00000000D+00  0.00000000D+00  0.00000000D+00  0.00000000D+00  0.00000000D+00
  0.00000000D+00  0.00000000D+00  0.00000000D+00 -0.00000000D+00  0.00000000D+00
  0.00000000D+00  0.00000000D+00  0.00000000D+00  0.00000000D+00  0.00000000D+00
 -0.00000000D+00 -0.00000000D+00 -0.00000000D+00 -0.00000000D+00 -0.00000000D+00
  0.00000000D+00  0.00000000D+00 -0.00000000D+00  0.00000000D+00 -0.00000000D+00
 -0.00000000D+00  0.00000000D+00 -0.00000000D+00  0.00000000D+00  0.00000000D+00
 -0.48403345D-02  0.49778869D-02 -0.13755242D-03 -0.27668651D-01  0.25917406D+00
 -0.41493434D-02
MO   19     MO 0.0        OCC NO =    0.0000000  ORB. ENERGY =    0.907810
 -0.00000000D+00 -0.00000000D+00 -0.00000000D+00 -0.00000000D+00 -0.00000000D+00
 -0.00000000D+00 -0.00000000D+00 -0.00000000D+00  0.00000000D+00  0.47799484D-01
  0.40675955D-01  0.32015508D-01  0.12465176D+00  0.10607498D+00  0.83490220D-01
  0.10012050D+01  0.85199601D+00  0.67059483D+00  0.00000000D+00 -0.12681883D-01
 -0.33071883D-01 -0.26563392D+00 -0.00000000D+00  0.20975164D-02  0.54699142D-02
  0.43934442D-01  0.00000000D+00 -0.20374167D-03 -0.53131847D-03 -0.42675592D-02
 -0.00000000D+00  0.00000000D+00  0.00000000D+00 -0.00000000D+00  0.00000000D+00
  0.00000000D+00
MO   20     MO 0.0        OCC NO =    0.0000000  ORB. ENERGY =    0.907810
  0.00000000D+00  0.00000000D+00  0.00000000D+00  0.00000000D+00  0.00000000D+00
  0.00000000D+00  0.00000000D+00  0.00000000D+00 -0.00000000D+00 -0.29972151D-01
 -0.25505419D-01 -0.20074979D-01  0.10020610D+01  0.85272448D+00  0.67116819D+00
 -0.12332741D+00 -0.10494800D+00 -0.82603185D-01 -0.00000000D+00  0.79520373D-02
 -0.26586104D+00  0.32720514D-01  0.00000000D+00 -0.13152246D-02  0.43972006D-01
 -0.54117996D-02  0.00000000D+00  0.12775396D-03 -0.42712080D-02  0.52567362D-03
  0.00000000D+00  0.00000000D+00  0.00000000D+00 -0.00000000D+00 -0.00000000D+00
  0.00000000D+00
MO   21     MO 0.0        OCC NO =    0.0000000  ORB. ENERGY =    0.907810
 -0.00000000D+00 -0.00000000D+00 -0.00000000D+00 -0.00000000D+00 -0.00000000D+00
 -0.00000000D+00  0.00000000D+00  0.00000000D+00 -0.00000000D+00 -0.10084896D+01
 -0.85819495D+00 -0.67547393D+00 -0.23872962D-01 -0.20315188D-01 -0.15989817D-01
  0.51119492D-01  0.43501184D-01  0.34239208D-01 -0.00000000D+00  0.26756661D+00
  0.63338353D-02 -0.13562728D-01  0.00000000D+00 -0.44254100D-01 -0.10475828D-02
  0.22432033D-02 -0.00000000D+00  0.42986090D-02  0.10175668D-03 -0.21789291D-03
 -0.00000000D+00  0.00000000D+00  0.00000000D+00 -0.00000000D+00  0.00000000D+00
  0.00000000D+00
MO   22     MO 0.0        OCC NO =    0.0000000  ORB. ENERGY =    1.158420
  0.81536467D-01  0.15095314D+00  0.24446670D+00  0.31350607D+00  0.28440303D+00
  0.13818115D-01  0.26460053D+00  0.69947706D+00 -0.86071191D-03  0.00000000D+00
  0.00000000D+00  0.00000000D+00 -0.00000000D+00 -0.00000000D+00 -0.00000000D+00
  0.00000000D+00  0.00000000D+00  0.00000000D+00 -0.51845821D+00 -0.00000000D+00
  0.00000000D+00 -0.00000000D+00 -0.12034164D+00  0.00000000D+00 -0.00000000D+00
  0.00000000D+00  0.19773664D-01 -0.00000000D+00  0.00000000D+00  0.00000000D+00
  0.25175459D+00  0.25175459D+00  0.25175459D+00  0.00000000D+00 -0.00000000D+00
  0.00000000D+00
MO   23     MO 0.0        OCC NO =    0.0000000  ORB. ENERGY =    9.313830
 -0.82003245D+00 -0.15181732D+01 -0.24586622D+01 -0.31530083D+01 -0.28603118D+01
 -0.13897221D+00  0.97811514D+00  0.25856679D+01 -0.31816843D-02  0.00000000D+00
  0.00000000D+00  0.00000000D+00 -0.00000000D+00 -0.00000000D+00 -0.00000000D+00
 -0.00000000D+00 -0.00000000D+00 -0.00000000D+00 -0.37996655D+00  0.00000000D+00
 -0.00000000D+00  0.00000000D+00 -0.32082645D-01  0.00000000D+00 -0.00000000D+00
 -0.00000000D+00  0.59362505D-02  0.00000000D+00 -0.00000000D+00  0.00000000D+00
  0.13471749D+00  0.13471749D+00  0.13471749D+00 -0.00000000D+00  0.00000000D+00
  0.00000000D+00
END DATA
 THE  HF ENERGY =    -14.730497608084 THE VIRIAL(-V/T)=   2.01604832


 $MOSPIN $END
 3 3 3 3 3 3 3 3 3 3 3 3 3 3 3 3 3 3 3 3 3 3 3


