 Molden2AIM, Version 3.1.0 (02/25/2015)           Time: Mon Dec  2 17:41:10 2024
GAUSSIAN             34 MOL ORBITALS     34 PRIMITIVES        1 NUCLEI
  Be   1    (CENTRE  1)   0.00000000  0.00000000  0.00000000  CHARGE =  4.0
CENTRE ASSIGNMENTS    1  1  1  1  1  1  1  1  1  1  1  1  1  1  1  1  1  1  1  1
CENTRE ASSIGNMENTS    1  1  1  1  1  1  1  1  1  1  1  1  1  1
TYPE ASSIGNMENTS      1  1  1  1  1  1  1  1  1  1  2  3  4  2  3  4  2  3  4  2
TYPE ASSIGNMENTS      3  4  5  6  7  8  9 10  5  6  7  8  9 10
EXPONENTS  0.1000000D-03 0.3000000D-03 0.9000000D-03 0.2700000D-02 0.8100000D-02
EXPONENTS  0.2430000D-01 0.7290000D-01 0.2187000D+00 0.6561000D+00 0.1968300D+01
EXPONENTS  0.1000000D-03 0.1000000D-03 0.1000000D-03 0.3000000D-03 0.3000000D-03
EXPONENTS  0.3000000D-03 0.9000000D-03 0.9000000D-03 0.9000000D-03 0.2700000D-02
EXPONENTS  0.2700000D-02 0.2700000D-02 0.1000000D-03 0.1000000D-03 0.1000000D-03
EXPONENTS  0.1000000D-03 0.1000000D-03 0.1000000D-03 0.3000000D-03 0.3000000D-03
EXPONENTS  0.3000000D-03 0.3000000D-03 0.3000000D-03 0.3000000D-03
MO    1     MO 0.0        OCC NO =    1.0000000  ORB. ENERGY =   -0.003920
 -0.39354121D-04 -0.57399056D-04 -0.13857343D-03 -0.30881787D-02 -0.63860450D-02
 -0.18455951D-01  0.20263225D-02  0.17397150D-01  0.22307355D-02  0.32388663D-02
 -0.00000000D+00  0.00000000D+00  0.00000000D+00  0.00000000D+00 -0.00000000D+00
  0.00000000D+00 -0.00000000D+00  0.00000000D+00  0.00000000D+00  0.00000000D+00
 -0.00000000D+00 -0.00000000D+00  0.13655629D-08  0.13655629D-08  0.13655629D-08
 -0.00000000D+00 -0.00000000D+00  0.00000000D+00  0.25828719D-07  0.25828719D-07
  0.25828719D-07 -0.00000000D+00  0.00000000D+00 -0.00000000D+00
MO    2     MO 0.0        OCC NO =    0.0000000  ORB. ENERGY =    0.000084
  0.15623077D-02 -0.11865097D-02 -0.70588909D-03  0.51858439D-03  0.44858046D-04
  0.73752641D-03 -0.14879883D-03 -0.51436849D-03 -0.10665575D-03 -0.92142111D-04
  0.00000000D+00 -0.00000000D+00  0.00000000D+00 -0.00000000D+00  0.00000000D+00
  0.00000000D+00  0.00000000D+00 -0.00000000D+00 -0.00000000D+00  0.00000000D+00
  0.00000000D+00  0.00000000D+00 -0.14000654D-06 -0.14000654D-06 -0.14000654D-06
  0.00000000D+00 -0.00000000D+00 -0.00000000D+00 -0.44804431D-06 -0.44804431D-06
 -0.44804431D-06  0.00000000D+00 -0.00000000D+00 -0.00000000D+00
MO    3     MO 0.0        OCC NO =    0.0000000  ORB. ENERGY =    0.000226
 -0.00000000D+00  0.00000000D+00 -0.00000000D+00  0.00000000D+00 -0.00000000D+00
  0.00000000D+00 -0.00000000D+00  0.00000000D+00 -0.00000000D+00 -0.00000000D+00
  0.16912441D-04 -0.34840407D-06  0.89481597D-08 -0.18128204D-04  0.37344932D-06
 -0.95915258D-08  0.17717605D-04 -0.36499169D-06  0.93746001D-08 -0.13031691D-04
  0.26846051D-06 -0.68955250D-08  0.00000000D+00 -0.00000000D+00  0.00000000D+00
 -0.00000000D+00 -0.00000000D+00  0.00000000D+00 -0.00000000D+00  0.00000000D+00
 -0.00000000D+00  0.00000000D+00  0.00000000D+00 -0.00000000D+00
MO    4     MO 0.0        OCC NO =    0.0000000  ORB. ENERGY =    0.000226
  0.00000000D+00 -0.00000000D+00 -0.00000000D+00 -0.00000000D+00  0.00000000D+00
 -0.00000000D+00  0.00000000D+00  0.00000000D+00 -0.00000000D+00  0.00000000D+00
  0.34851825D-06  0.16905922D-04 -0.46955317D-06 -0.37357144D-06 -0.18121216D-04
  0.50330720D-06  0.36510945D-06  0.17710775D-04 -0.49190764D-06 -0.26854824D-06
 -0.13026664D-04  0.36181329D-06 -0.00000000D+00  0.00000000D+00 -0.00000000D+00
  0.00000000D+00 -0.00000000D+00 -0.00000000D+00 -0.00000000D+00 -0.00000000D+00
 -0.00000000D+00 -0.00000000D+00 -0.00000000D+00  0.00000000D+00
MO    5     MO 0.0        OCC NO =    0.0000000  ORB. ENERGY =    0.000226
 -0.00000000D+00  0.00000000D+00  0.00000000D+00  0.00000000D+00  0.00000000D+00
  0.00000000D+00 -0.00000000D+00 -0.00000000D+00  0.00000000D+00 -0.00000000D+00
  0.72824245D-09  0.46963798D-06  0.16909511D-04 -0.78058125D-09 -0.50339837D-06
 -0.18125063D-04  0.76214454D-09  0.49199652D-06  0.17714535D-04 -0.56146769D-09
 -0.36187470D-06 -0.13029437D-04  0.00000000D+00  0.00000000D+00  0.00000000D+00
 -0.00000000D+00  0.00000000D+00 -0.00000000D+00  0.00000000D+00  0.00000000D+00
  0.00000000D+00  0.00000000D+00  0.00000000D+00 -0.00000000D+00
MO    6     MO 0.0        OCC NO =    0.0000000  ORB. ENERGY =    0.000331
  0.00000000D+00 -0.00000000D+00 -0.00000000D+00  0.00000000D+00 -0.00000000D+00
 -0.00000000D+00 -0.00000000D+00  0.00000000D+00  0.00000000D+00  0.00000000D+00
  0.00000000D+00  0.00000000D+00  0.00000000D+00 -0.00000000D+00 -0.00000000D+00
 -0.00000000D+00 -0.00000000D+00  0.00000000D+00  0.00000000D+00  0.00000000D+00
 -0.00000000D+00  0.00000000D+00 -0.16199855D-06  0.11881954D-07  0.15011659D-06
 -0.45280716D-08  0.11557166D-07 -0.52686324D-09  0.18077997D-06 -0.13259492D-07
 -0.16752047D-06  0.50530337D-08 -0.12897049D-07  0.58794245D-09
MO    7     MO 0.0        OCC NO =    0.0000000  ORB. ENERGY =    0.000331
 -0.00000000D+00  0.00000000D+00  0.00000000D+00 -0.00000000D+00  0.00000000D+00
 -0.00000000D+00  0.00000000D+00 -0.00000000D+00  0.00000000D+00 -0.00000000D+00
 -0.00000000D+00  0.00000000D+00 -0.00000000D+00 -0.00000000D+00 -0.00000000D+00
  0.00000000D+00  0.00000000D+00  0.00000000D+00 -0.00000000D+00 -0.00000000D+00
 -0.00000000D+00  0.00000000D+00  0.79760845D-07 -0.18010454D-06  0.10034370D-06
  0.11639507D-07  0.37202256D-08 -0.10384734D-07 -0.89007975D-07  0.20098510D-06
 -0.11197712D-06 -0.12988931D-07 -0.41515272D-08  0.11588693D-07
MO    8     MO 0.0        OCC NO =    0.0000000  ORB. ENERGY =    0.000331
  0.00000000D+00 -0.00000000D+00 -0.00000000D+00  0.00000000D+00 -0.00000000D+00
 -0.00000000D+00 -0.00000000D+00  0.00000000D+00 -0.00000000D+00  0.00000000D+00
 -0.00000000D+00  0.00000000D+00 -0.00000000D+00 -0.00000000D+00 -0.00000000D+00
  0.00000000D+00  0.00000000D+00  0.00000000D+00  0.00000000D+00 -0.00000000D+00
 -0.00000000D+00 -0.00000000D+00  0.57754871D-08 -0.35503838D-08 -0.22251033D-08
 -0.30410897D-07  0.22491867D-06  0.21535714D-06 -0.64450686D-08  0.39619986D-08
  0.24830701D-08  0.33936608D-07 -0.25099479D-06 -0.24032472D-06
MO    9     MO 0.0        OCC NO =    0.0000000  ORB. ENERGY =    0.000331
 -0.00000000D+00  0.00000000D+00 -0.00000000D+00  0.00000000D+00  0.00000000D+00
  0.00000000D+00 -0.00000000D+00 -0.00000000D+00  0.00000000D+00 -0.00000000D+00
  0.00000000D+00 -0.00000000D+00  0.00000000D+00 -0.00000000D+00  0.00000000D+00
 -0.00000000D+00  0.00000000D+00 -0.00000000D+00 -0.00000000D+00 -0.00000000D+00
  0.00000000D+00 -0.00000000D+00 -0.44232233D-08  0.73661875D-08 -0.29429642D-08
  0.30715169D-06  0.56931398D-07 -0.15666418D-07  0.49360312D-08 -0.82201903D-08
  0.32841592D-08 -0.34276154D-06 -0.63531784D-07  0.17482720D-07
MO   10     MO 0.0        OCC NO =    0.0000000  ORB. ENERGY =    0.000331
 -0.00000000D+00  0.00000000D+00  0.00000000D+00 -0.00000000D+00  0.00000000D+00
 -0.00000000D+00  0.00000000D+00 -0.00000000D+00 -0.00000000D+00  0.00000000D+00
 -0.00000000D+00 -0.00000000D+00  0.00000000D+00  0.00000000D+00  0.00000000D+00
 -0.00000000D+00 -0.00000000D+00 -0.00000000D+00 -0.00000000D+00  0.00000000D+00
  0.00000000D+00  0.00000000D+00 -0.25181927D-08 -0.43464294D-08  0.68646238D-08
  0.50702956D-07 -0.20980170D-06  0.22641002D-06  0.28101375D-08  0.48503417D-08
 -0.76604792D-08 -0.56581243D-07  0.23412522D-06 -0.25265904D-06
MO   11     MO 0.0        OCC NO =    0.0000000  ORB. ENERGY =    0.000361
 -0.50977342D-02  0.32252370D-02  0.20977460D-02 -0.36878480D-03  0.99602073D-03
  0.98427654D-03  0.78968951D-04 -0.13557058D-02 -0.78173342D-04 -0.25797422D-03
 -0.00000000D+00  0.00000000D+00 -0.00000000D+00  0.00000000D+00 -0.00000000D+00
 -0.00000000D+00 -0.00000000D+00 -0.00000000D+00  0.00000000D+00  0.00000000D+00
  0.00000000D+00 -0.00000000D+00  0.25945731D-06  0.25945731D-06  0.25945731D-06
 -0.00000000D+00  0.00000000D+00  0.00000000D+00  0.10705908D-05  0.10705908D-05
  0.10705908D-05  0.00000000D+00 -0.00000000D+00 -0.00000000D+00
MO   12     MO 0.0        OCC NO =    0.0000000  ORB. ENERGY =    0.000934
  0.00000000D+00 -0.00000000D+00 -0.00000000D+00  0.00000000D+00  0.00000000D+00
  0.00000000D+00 -0.00000000D+00  0.00000000D+00 -0.00000000D+00  0.00000000D+00
  0.12540861D-04 -0.10482330D-07 -0.55534438D-07 -0.92864973D-04  0.77621405D-07
  0.41123182D-06  0.74402848D-04 -0.62189217D-07 -0.32947753D-06 -0.57869729D-04
  0.48373950D-07  0.25626613D-06 -0.00000000D+00 -0.00000000D+00 -0.00000000D+00
  0.00000000D+00 -0.00000000D+00 -0.00000000D+00 -0.00000000D+00 -0.00000000D+00
 -0.00000000D+00 -0.00000000D+00  0.00000000D+00 -0.00000000D+00
MO   13     MO 0.0        OCC NO =    0.0000000  ORB. ENERGY =    0.000934
 -0.00000000D+00  0.00000000D+00  0.00000000D+00 -0.00000000D+00  0.00000000D+00
 -0.00000000D+00 -0.00000000D+00  0.00000000D+00 -0.00000000D+00  0.00000000D+00
  0.10287191D-07  0.12540907D-04 -0.44051612D-07 -0.76176739D-07 -0.92865312D-04
  0.32620249D-06  0.61031557D-07  0.74403119D-04 -0.26135114D-06 -0.47470338D-07
 -0.57869939D-04  0.20327762D-06  0.00000000D+00  0.00000000D+00  0.00000000D+00
 -0.00000000D+00  0.00000000D+00 -0.00000000D+00  0.00000000D+00  0.00000000D+00
  0.00000000D+00  0.00000000D+00 -0.00000000D+00  0.00000000D+00
MO   14     MO 0.0        OCC NO =    0.0000000  ORB. ENERGY =    0.000934
 -0.00000000D+00  0.00000000D+00  0.00000000D+00 -0.00000000D+00  0.00000000D+00
 -0.00000000D+00  0.00000000D+00  0.00000000D+00  0.00000000D+00  0.00000000D+00
 -0.55570928D-07 -0.44005714D-07 -0.12540788D-04  0.41150195D-06  0.32586144D-06
  0.92864432D-04 -0.32969306D-06 -0.26107784D-06 -0.74402415D-04  0.25643282D-06
  0.20306707D-06  0.57869395D-04  0.00000000D+00  0.00000000D+00  0.00000000D+00
  0.00000000D+00 -0.00000000D+00  0.00000000D+00  0.00000000D+00  0.00000000D+00
  0.00000000D+00  0.00000000D+00  0.00000000D+00  0.00000000D+00
MO   15     MO 0.0        OCC NO =    0.0000000  ORB. ENERGY =    0.000941
 -0.75494846D-02  0.55424182D-02  0.36210692D-02 -0.24058443D-02  0.41348691D-04
 -0.28158135D-02  0.63043575D-03  0.17995831D-02  0.42213916D-03  0.31828112D-03
  0.00000000D+00 -0.00000000D+00  0.00000000D+00 -0.00000000D+00  0.00000000D+00
 -0.00000000D+00  0.00000000D+00 -0.00000000D+00  0.00000000D+00 -0.00000000D+00
  0.00000000D+00 -0.00000000D+00  0.29111095D-06  0.29111095D-06  0.29111095D-06
  0.00000000D+00 -0.00000000D+00 -0.00000000D+00  0.24567374D-05  0.24567374D-05
  0.24567374D-05 -0.00000000D+00  0.00000000D+00  0.00000000D+00
MO   16     MO 0.0        OCC NO =    0.0000000  ORB. ENERGY =    0.001271
  0.00000000D+00 -0.00000000D+00 -0.00000000D+00 -0.00000000D+00  0.00000000D+00
  0.00000000D+00  0.00000000D+00 -0.00000000D+00  0.00000000D+00 -0.00000000D+00
 -0.00000000D+00 -0.00000000D+00  0.00000000D+00  0.00000000D+00  0.00000000D+00
  0.00000000D+00 -0.00000000D+00 -0.00000000D+00 -0.00000000D+00  0.00000000D+00
  0.00000000D+00  0.00000000D+00 -0.63272180D-07 -0.35498818D-07  0.98770998D-07
  0.35124777D-08 -0.13945964D-08 -0.34831342D-08  0.88385089D-06  0.49588400D-06
 -0.13797349D-05 -0.49065881D-07  0.19481174D-07  0.48655990D-07
MO   17     MO 0.0        OCC NO =    0.0000000  ORB. ENERGY =    0.001271
 -0.00000000D+00  0.00000000D+00 -0.00000000D+00  0.00000000D+00 -0.00000000D+00
  0.00000000D+00 -0.00000000D+00  0.00000000D+00 -0.00000000D+00  0.00000000D+00
 -0.00000000D+00  0.00000000D+00  0.00000000D+00  0.00000000D+00 -0.00000000D+00
 -0.00000000D+00 -0.00000000D+00  0.00000000D+00  0.00000000D+00  0.00000000D+00
 -0.00000000D+00 -0.00000000D+00  0.12201249D-07 -0.12094145D-07 -0.10710349D-09
  0.16896448D-06 -0.15163382D-07 -0.26375753D-07 -0.17043960D-06  0.16894347D-06
  0.14961272D-08 -0.23602696D-05  0.21181772D-06  0.36844365D-06
MO   18     MO 0.0        OCC NO =    0.0000000  ORB. ENERGY =    0.001271
  0.00000000D+00 -0.00000000D+00  0.00000000D+00 -0.00000000D+00  0.00000000D+00
  0.00000000D+00  0.00000000D+00 -0.00000000D+00  0.00000000D+00 -0.00000000D+00
  0.00000000D+00 -0.00000000D+00 -0.00000000D+00 -0.00000000D+00  0.00000000D+00
  0.00000000D+00  0.00000000D+00 -0.00000000D+00 -0.00000000D+00 -0.00000000D+00
  0.00000000D+00  0.00000000D+00 -0.33729787D-07  0.39206473D-07 -0.54766846D-08
  0.37227392D-07  0.10405632D-06  0.11154205D-06  0.47117236D-06 -0.54767634D-06
  0.76503975D-07 -0.52003049D-06 -0.14535657D-05 -0.15581340D-05
MO   19     MO 0.0        OCC NO =    0.0000000  ORB. ENERGY =    0.001271
  0.00000000D+00 -0.00000000D+00  0.00000000D+00  0.00000000D+00  0.00000000D+00
  0.00000000D+00  0.00000000D+00 -0.00000000D+00 -0.00000000D+00 -0.00000000D+00
 -0.00000000D+00  0.00000000D+00 -0.00000000D+00  0.00000000D+00 -0.00000000D+00
  0.00000000D+00 -0.00000000D+00 -0.00000000D+00 -0.00000000D+00  0.00000000D+00
 -0.00000000D+00  0.00000000D+00 -0.68777928D-07  0.84128879D-07 -0.15350951D-07
  0.83721198D-08 -0.50315518D-07 -0.58100893D-07  0.96076085D-06 -0.11751987D-05
  0.21443787D-06 -0.11695037D-06  0.70285892D-06  0.81161302D-06
MO   20     MO 0.0        OCC NO =    0.0000000  ORB. ENERGY =    0.001271
  0.00000000D+00  0.00000000D+00 -0.00000000D+00  0.00000000D+00 -0.00000000D+00
  0.00000000D+00 -0.00000000D+00  0.00000000D+00  0.00000000D+00 -0.00000000D+00
 -0.00000000D+00  0.00000000D+00  0.00000000D+00  0.00000000D+00 -0.00000000D+00
 -0.00000000D+00 -0.00000000D+00  0.00000000D+00  0.00000000D+00  0.00000000D+00
 -0.00000000D+00 -0.00000000D+00 -0.11373096D-08  0.62008495D-09  0.51722465D-09
  0.68993196D-08 -0.12834977D-06  0.11636043D-06  0.15887108D-07 -0.86619869D-08
 -0.72251209D-08 -0.96376806D-07  0.17929216D-05 -0.16254422D-05
MO   21     MO 0.0        OCC NO =    0.0000000  ORB. ENERGY =    0.002121
 -0.72091236D-02 -0.30018954D-02  0.11376317D-01 -0.21622759D-02  0.36193971D-02
  0.22303997D-02  0.54497846D-03 -0.39340738D-02 -0.98945442D-04 -0.75638251D-03
 -0.00000000D+00  0.00000000D+00 -0.00000000D+00 -0.00000000D+00 -0.00000000D+00
  0.00000000D+00 -0.00000000D+00  0.00000000D+00 -0.00000000D+00 -0.00000000D+00
 -0.00000000D+00  0.00000000D+00  0.24504879D-06  0.24504879D-06  0.24504879D-06
 -0.00000000D+00 -0.00000000D+00 -0.00000000D+00  0.40644111D-05  0.40644111D-05
  0.40644111D-05  0.00000000D+00  0.00000000D+00  0.00000000D+00
MO   22     MO 0.0        OCC NO =    0.0000000  ORB. ENERGY =    0.003066
  0.00000000D+00  0.00000000D+00 -0.00000000D+00  0.00000000D+00 -0.00000000D+00
  0.00000000D+00  0.00000000D+00 -0.00000000D+00  0.00000000D+00 -0.00000000D+00
 -0.19858654D-06  0.66366030D-05 -0.22709547D-06  0.22622685D-05 -0.75603181D-04
  0.25870371D-05 -0.11480150D-04  0.38365731D-03 -0.13128226D-04  0.59370558D-05
 -0.19841160D-03  0.67893725D-05 -0.00000000D+00 -0.00000000D+00 -0.00000000D+00
  0.00000000D+00 -0.00000000D+00 -0.00000000D+00 -0.00000000D+00 -0.00000000D+00
 -0.00000000D+00  0.00000000D+00  0.00000000D+00  0.00000000D+00
MO   23     MO 0.0        OCC NO =    0.0000000  ORB. ENERGY =    0.003066
 -0.00000000D+00  0.00000000D+00  0.00000000D+00 -0.00000000D+00  0.00000000D+00
 -0.00000000D+00  0.00000000D+00 -0.00000000D+00 -0.00000000D+00  0.00000000D+00
  0.66362760D-05  0.19025444D-06 -0.24321259D-06 -0.75599456D-04 -0.21673500D-05
  0.27706408D-05  0.38363841D-03  0.10998472D-04 -0.14059945D-04 -0.19840183D-03
 -0.56879572D-05  0.72712171D-05  0.00000000D+00  0.00000000D+00  0.00000000D+00
 -0.00000000D+00 -0.00000000D+00  0.00000000D+00 -0.00000000D+00  0.00000000D+00
  0.00000000D+00 -0.00000000D+00  0.00000000D+00 -0.00000000D+00
MO   24     MO 0.0        OCC NO =    0.0000000  ORB. ENERGY =    0.003066
  0.00000000D+00  0.00000000D+00 -0.00000000D+00  0.00000000D+00 -0.00000000D+00
  0.00000000D+00 -0.00000000D+00  0.00000000D+00 -0.00000000D+00  0.00000000D+00
 -0.23645814D-06 -0.23412018D-06 -0.66351174D-05  0.26936953D-05  0.26670616D-05
  0.75586258D-04 -0.13669476D-04 -0.13534321D-04 -0.38357143D-03  0.70692817D-05
  0.69993878D-05  0.19836719D-03 -0.00000000D+00 -0.00000000D+00 -0.00000000D+00
  0.00000000D+00 -0.00000000D+00  0.00000000D+00 -0.00000000D+00 -0.00000000D+00
 -0.00000000D+00 -0.00000000D+00  0.00000000D+00 -0.00000000D+00
MO   25     MO 0.0        OCC NO =    0.0000000  ORB. ENERGY =    0.005057
  0.49771088D-02  0.89892873D-02 -0.26949993D-01  0.17158065D-01 -0.34476629D-02
  0.10339245D-01 -0.31785950D-02 -0.42815789D-02 -0.17429912D-02 -0.69666779D-03
  0.00000000D+00 -0.00000000D+00  0.00000000D+00 -0.00000000D+00  0.00000000D+00
 -0.00000000D+00  0.00000000D+00 -0.00000000D+00 -0.00000000D+00 -0.00000000D+00
 -0.00000000D+00  0.00000000D+00 -0.16318652D-06 -0.16318652D-06 -0.16318652D-06
  0.00000000D+00  0.00000000D+00  0.00000000D+00 -0.36775684D-05 -0.36775684D-05
 -0.36775684D-05 -0.00000000D+00 -0.00000000D+00 -0.00000000D+00
MO   26     MO 0.0        OCC NO =    0.0000000  ORB. ENERGY =    0.009226
  0.00000000D+00 -0.00000000D+00  0.00000000D+00  0.00000000D+00 -0.00000000D+00
  0.00000000D+00 -0.00000000D+00  0.00000000D+00  0.00000000D+00  0.00000000D+00
  0.32660672D-05 -0.72484855D-07 -0.19097656D-06 -0.40074226D-04  0.88938032D-06
  0.23432588D-05  0.31660599D-03 -0.70265394D-05 -0.18512889D-04 -0.13554709D-02
  0.30082403D-04  0.79258393D-04  0.00000000D+00 -0.00000000D+00 -0.00000000D+00
 -0.00000000D+00  0.00000000D+00 -0.00000000D+00 -0.00000000D+00  0.00000000D+00
 -0.00000000D+00 -0.00000000D+00  0.00000000D+00  0.00000000D+00
MO   27     MO 0.0        OCC NO =    0.0000000  ORB. ENERGY =    0.009226
  0.00000000D+00 -0.00000000D+00 -0.00000000D+00  0.00000000D+00 -0.00000000D+00
 -0.00000000D+00  0.00000000D+00  0.00000000D+00  0.00000000D+00 -0.00000000D+00
 -0.19094776D-06  0.34151421D-08 -0.32668714D-05  0.23429053D-05 -0.41903200D-07
  0.40084093D-04 -0.18510100D-04  0.33105737D-06 -0.31668394D-03  0.79246444D-04
 -0.14173374D-05  0.13558046D-02 -0.00000000D+00 -0.00000000D+00 -0.00000000D+00
 -0.00000000D+00  0.00000000D+00  0.00000000D+00 -0.00000000D+00 -0.00000000D+00
 -0.00000000D+00  0.00000000D+00  0.00000000D+00 -0.00000000D+00
MO   28     MO 0.0        OCC NO =    0.0000000  ORB. ENERGY =    0.009226
 -0.00000000D+00 -0.00000000D+00  0.00000000D+00 -0.00000000D+00  0.00000000D+00
 -0.00000000D+00  0.00000000D+00 -0.00000000D+00  0.00000000D+00 -0.00000000D+00
 -0.72560686D-07 -0.32716441D-05  0.82103670D-09  0.89030948D-06  0.40142654D-04
 -0.10073832D-07 -0.70338831D-05 -0.31714661D-03  0.79589666D-07  0.30113846D-04
  0.13577854D-02 -0.34074070D-06  0.00000000D+00 -0.00000000D+00 -0.00000000D+00
 -0.00000000D+00 -0.00000000D+00  0.00000000D+00 -0.00000000D+00  0.00000000D+00
  0.00000000D+00 -0.00000000D+00  0.00000000D+00 -0.00000000D+00
MO   29     MO 0.0        OCC NO =    0.0000000  ORB. ENERGY =    0.015182
 -0.27175761D-02 -0.60325195D-02  0.21770510D-01 -0.38479860D-01  0.42703554D-01
 -0.62792449D-02  0.10587005D-01 -0.18595408D-01  0.26573948D-02 -0.37518775D-02
  0.00000000D+00  0.00000000D+00 -0.00000000D+00  0.00000000D+00 -0.00000000D+00
  0.00000000D+00 -0.00000000D+00  0.00000000D+00 -0.00000000D+00 -0.00000000D+00
 -0.00000000D+00  0.00000000D+00  0.89455309D-07  0.89455309D-07  0.89455309D-07
 -0.00000000D+00 -0.00000000D+00 -0.00000000D+00  0.21043711D-05  0.21043711D-05
  0.21043711D-05  0.00000000D+00  0.00000000D+00  0.00000000D+00
MO   30     MO 0.0        OCC NO =    0.0000000  ORB. ENERGY =    0.053661
 -0.13664282D-02 -0.29723069D-02  0.11284307D-01 -0.27109691D-01  0.76801743D-01
 -0.12608147D+00  0.53534936D-01 -0.74630202D-02  0.21111193D-01 -0.30522252D-02
 -0.00000000D+00  0.00000000D+00 -0.00000000D+00  0.00000000D+00 -0.00000000D+00
  0.00000000D+00 -0.00000000D+00  0.00000000D+00 -0.00000000D+00 -0.00000000D+00
 -0.00000000D+00  0.00000000D+00  0.45279543D-07  0.45279543D-07  0.45279543D-07
  0.00000000D+00 -0.00000000D+00 -0.00000000D+00  0.10449455D-05  0.10449455D-05
  0.10449455D-05 -0.00000000D+00  0.00000000D+00  0.00000000D+00
MO   31     MO 0.0        OCC NO =    0.0000000  ORB. ENERGY =    0.207392
 -0.63903983D-03 -0.13501915D-02  0.51370052D-02 -0.12613846D-01  0.44472443D-01
 -0.15198096D+00  0.33083054D+00 -0.23265734D+00  0.68763056D-01 -0.42412398D-01
 -0.00000000D+00  0.00000000D+00  0.00000000D+00  0.00000000D+00 -0.00000000D+00
 -0.00000000D+00 -0.00000000D+00  0.00000000D+00  0.00000000D+00 -0.00000000D+00
 -0.00000000D+00 -0.00000000D+00  0.21243471D-07  0.21243471D-07  0.21243471D-07
 -0.00000000D+00 -0.00000000D+00 -0.00000000D+00  0.48345868D-06  0.48345868D-06
  0.48345868D-06  0.00000000D+00  0.00000000D+00  0.00000000D+00
MO   32     MO 0.0        OCC NO =    0.0000000  ORB. ENERGY =    0.801897
  0.30478577D-03  0.63616905D-03 -0.24153837D-02  0.58451432D-02 -0.20703569D-01
  0.81461402D-01 -0.29909114D+00  0.74644560D+00 -0.58000863D+00  0.13477525D+00
  0.00000000D+00 -0.00000000D+00 -0.00000000D+00 -0.00000000D+00  0.00000000D+00
  0.00000000D+00  0.00000000D+00 -0.00000000D+00 -0.00000000D+00  0.00000000D+00
  0.00000000D+00  0.00000000D+00 -0.10142920D-07 -0.10142920D-07 -0.10142920D-07
  0.00000000D+00  0.00000000D+00 -0.00000000D+00 -0.22961714D-06 -0.22961714D-06
 -0.22961714D-06 -0.00000000D+00 -0.00000000D+00 -0.00000000D+00
MO   33     MO 0.0        OCC NO =    0.0000000  ORB. ENERGY =    2.743510
 -0.15159347D-03 -0.31521636D-03  0.11956997D-02 -0.28734596D-02  0.10068763D-01
 -0.39698205D-01  0.16113140D+00 -0.60595305D+00  0.15298577D+01 -0.94985023D+00
 -0.00000000D+00  0.00000000D+00  0.00000000D+00  0.00000000D+00 -0.00000000D+00
 -0.00000000D+00 -0.00000000D+00  0.00000000D+00  0.00000000D+00 -0.00000000D+00
 -0.00000000D+00 -0.00000000D+00  0.50464387D-08  0.50464387D-08  0.50464387D-08
  0.00000000D+00 -0.00000000D+00  0.00000000D+00  0.11406048D-06  0.11406048D-06
  0.11406048D-06  0.00000000D+00  0.00000000D+00  0.00000000D+00
MO   34     MO 0.0        OCC NO =    0.0000000  ORB. ENERGY =   10.365200
 -0.77675104D-04 -0.16128018D-03  0.61151993D-03 -0.14648211D-02  0.50965770D-02
 -0.19846302D-01  0.79922057D-01 -0.31854441D+00  0.11230279D+01 -0.23482136D+01
  0.00000000D+00  0.00000000D+00  0.00000000D+00  0.00000000D+00 -0.00000000D+00
 -0.00000000D+00 -0.00000000D+00  0.00000000D+00  0.00000000D+00  0.00000000D+00
 -0.00000000D+00 -0.00000000D+00  0.25860426D-08  0.25860426D-08  0.25860426D-08
  0.00000000D+00 -0.00000000D+00  0.00000000D+00  0.58415516D-07  0.58415516D-07
  0.58415516D-07 -0.00000000D+00  0.00000000D+00 -0.00000000D+00
END DATA
 THE  HF ENERGY =    -14.688838029497 THE VIRIAL(-V/T)=   2.01378941


 $MOSPIN $END
 3 3 3 3 3 3 3 3 3 3 3 3 3 3 3 3 3 3 3 3 3 3 3 3 3 3 3 3 3 3 3 3 3 3


