[Molden Format]
[Atoms] AU
BE       1       4     0.00000000     0.00000000     0.00000000
[GTO]
  1 0
s  6 1.00
   1.6828000000E+03   2.2857400000E-03
   2.5171500000E+02   1.7593800000E-02
   5.7411600000E+01   8.6331500000E-02
   1.6517100000E+01   2.8183500000E-01
   4.8536400000E+00   6.4059400000E-01
   6.2686300000E-01   1.4446700000E-01
s  3 1.00
   8.3093800000E+00   1.0862100000E-01
   1.7407500000E+00   9.2730100000E-01
   4.8581600000E-01  -2.9716900000E-03
p  3 1.00
   8.3093800000E+00   3.6134400000E-02
   1.7407500000E+00   2.1695800000E-01
   4.8581600000E-01   8.4183900000E-01
s  1 1.00
   1.6361300000E-01   1.0000000000E+00
p  1 1.00
   1.6361300000E-01   1.0000000000E+00
s  1 1.00
   5.6728500000E-02   1.0000000000E+00
p  1 1.00
   5.6728500000E-02   1.0000000000E+00
s  1 1.00
   2.0700000000E-02   1.0000000000E+00
p  1 1.00
   2.0700000000E-02   1.0000000000E+00
d  1 1.00
   2.5500000000E-01   1.0000000000E+00
 
 
[MO]
Ene=    -4.13168E+00
Spin= Alpha
Occup=   2.0000000000
   1       0.59613963
   2       0.43514052
   3       0.00000000
   4       0.00000000
   5      -0.00000000
   6       0.03382694
   7       0.00000000
   8      -0.00000000
   9      -0.00000000
  10       0.00261142
  11       0.00000000
  12       0.00000000
  13       0.00000000
  14      -0.00128888
  15       0.00000000
  16      -0.00000000
  17      -0.00000000
  18      -0.01215040
  19      -0.01215040
  20      -0.01215040
  21      -0.00000000
  22      -0.00000000
  23      -0.00000000
Ene=    -2.61424E-01
Spin= Alpha
Occup=   2.0000000000
   1       0.11932813
   2       0.18022547
   3      -0.00000000
   4       0.00000000
   5       0.00000000
   6      -0.63996908
   7      -0.00000000
   8       0.00000000
   9       0.00000000
  10      -0.24057253
  11       0.00000000
  12       0.00000000
  13       0.00000000
  14      -0.29707952
  15      -0.00000000
  16       0.00000000
  17      -0.00000000
  18       0.00646525
  19       0.00646525
  20       0.00646525
  21       0.00000000
  22      -0.00000000
  23       0.00000000
Ene=    -1.62369E-01
Spin= Alpha
Occup=   0.0000000000
   1      -0.00000000
   2      -0.00000000
   3      -0.01452250
   4      -0.00143428
   5      -0.00305347
   6       0.00000000
   7      -0.22677524
   8      -0.02239700
   9      -0.04768131
  10       0.00000000
  11       0.59427598
  12       0.05869247
  13       0.12495129
  14      -0.00000000
  15      -1.29775276
  16      -0.12816994
  17      -0.27286292
  18      -0.00000000
  19       0.00000000
  20      -0.00000000
  21       0.00000000
  22      -0.00000000
  23      -0.00000000
Ene=    -1.62369E-01
Spin= Alpha
Occup=   0.0000000000
   1      -0.00000000
   2      -0.00000000
   3      -0.00321032
   4       0.01002237
   5       0.01056076
   6       0.00000000
   7      -0.05013064
   8       0.15650376
   9       0.16491099
  10       0.00000000
  11       0.13136987
  12      -0.41012602
  13      -0.43215758
  14      -0.00000000
  15      -0.28687952
  16       0.89561449
  17       0.94372600
  18      -0.00000000
  19      -0.00000000
  20      -0.00000000
  21       0.00000000
  22       0.00000000
  23       0.00000000
Ene=    -1.62369E-01
Spin= Alpha
Occup=   0.0000000000
   1      -0.00000000
   2      -0.00000000
   3      -0.00103667
   4      -0.01094434
   5       0.01007126
   6       0.00000000
   7      -0.01618803
   8      -0.17090081
   9       0.15726729
  10       0.00000000
  11       0.04242156
  12       0.44785423
  13      -0.41212689
  14      -0.00000000
  15      -0.09263827
  16      -0.97800362
  17       0.89998389
  18       0.00000000
  19      -0.00000000
  20      -0.00000000
  21      -0.00000000
  22       0.00000000
  23       0.00000000
Ene=    -1.40189E-01
Spin= Alpha
Occup=   0.0000000000
   1      -0.04445586
   2      -0.09050564
   3       0.00000000
   4       0.00000000
   5      -0.00000000
   6       0.00186906
   7       0.00000000
   8      -0.00000000
   9      -0.00000000
  10       1.78225804
  11      -0.00000000
  12       0.00000000
  13       0.00000000
  14      -1.92239521
  15       0.00000000
  16      -0.00000000
  17      -0.00000000
  18      -0.08691539
  19      -0.08691539
  20      -0.08691539
  21      -0.00000000
  22      -0.00000000
  23      -0.00000000
Ene=    -7.11206E-02
Spin= Alpha
Occup=   0.0000000000
   1      -0.00000000
   2      -0.00000000
   3      -0.08419184
   4      -0.04601620
   5       0.25834798
   6      -0.00000000
   7      -0.06727229
   8      -0.03676859
   9       0.20642928
  10       0.00000000
  11      -0.30478917
  12      -0.16658670
  13       0.93526487
  14      -0.00000000
  15       0.19933897
  16       0.10895145
  17      -0.61168425
  18      -0.00000000
  19       0.00000000
  20      -0.00000000
  21       0.00000000
  22      -0.00000000
  23       0.00000000
Ene=    -7.11206E-02
Spin= Alpha
Occup=   0.0000000000
   1       0.00000000
   2       0.00000000
   3       0.25663764
   4      -0.07105343
   5       0.07097863
   6       0.00000000
   7       0.20506266
   8      -0.05677423
   9       0.05671446
  10      -0.00000000
  11       0.92907315
  12      -0.25722585
  13       0.25695504
  14       0.00000000
  15      -0.60763473
  16       0.16823149
  17      -0.16805438
  18      -0.00000000
  19       0.00000000
  20      -0.00000000
  21       0.00000000
  22      -0.00000000
  23       0.00000000
Ene=    -7.11206E-02
Spin= Alpha
Occup=   0.0000000000
   1      -0.00000000
   2      -0.00000000
   3      -0.05475665
   4      -0.26226581
   5      -0.06455843
   6       0.00000000
   7      -0.04375252
   8      -0.20955977
   9      -0.05158449
  10       0.00000000
  11      -0.19822864
  12      -0.94944809
  13      -0.23371280
  14      -0.00000000
  15       0.12964599
  16       0.62096040
  17       0.15285343
  18      -0.00000000
  19       0.00000000
  20       0.00000000
  21       0.00000000
  22       0.00000000
  23       0.00000000
Ene=     1.56015E-01
Spin= Alpha
Occup=   0.0000000000
   1       0.00000000
   2       0.00000000
   3      -0.02245581
   4       0.00056746
   5      -0.25200691
   6      -0.00000000
   7      -0.10524457
   8       0.00265954
   9      -1.18109132
  10       0.00000000
  11       0.16119939
  12      -0.00407352
  13       1.80903585
  14      -0.00000000
  15      -0.06334864
  16       0.00160082
  17      -0.71092058
  18      -0.00000000
  19      -0.00000000
  20      -0.00000000
  21       0.00000000
  22       0.00000000
  23      -0.00000000
Ene=     1.56015E-01
Spin= Alpha
Occup=   0.0000000000
   1      -0.00000000
   2      -0.00000000
   3      -0.01363943
   4       0.25263185
   5       0.00178425
   6       0.00000000
   7      -0.06392448
   8       1.18402024
   9       0.00836231
  10      -0.00000000
  11       0.09791087
  12      -1.81352197
  13      -0.01280825
  14       0.00000000
  15      -0.03847732
  16       0.71268355
  17       0.00503343
  18      -0.00000000
  19       0.00000000
  20       0.00000000
  21       0.00000000
  22       0.00000000
  23      -0.00000000
Ene=     1.56015E-01
Spin= Alpha
Occup=   0.0000000000
   1       0.00000000
   2       0.00000000
   3      -0.25163818
   4      -0.01374393
   5       0.02239200
   6      -0.00000000
   7      -1.17936315
   8      -0.06441424
   9       0.10494553
  10       0.00000000
  11       1.80638887
  12       0.09866101
  13      -0.16074136
  14      -0.00000000
  15      -0.70988037
  16      -0.03877211
  17       0.06316864
  18      -0.00000000
  19      -0.00000000
  20      -0.00000000
  21      -0.00000000
  22       0.00000000
  23       0.00000000
Ene=     1.59103E-01
Spin= Alpha
Occup=   0.0000000000
   1      -0.11561653
   2      -0.13467742
   3      -0.00000000
   4      -0.00000000
   5      -0.00000000
   6       1.83710892
   7      -0.00000000
   8      -0.00000000
   9      -0.00000000
  10      -3.12392283
  11       0.00000000
  12       0.00000000
  13       0.00000000
  14       1.17350013
  15      -0.00000000
  16      -0.00000000
  17      -0.00000000
  18       0.21786020
  19       0.21786020
  20       0.21786020
  21      -0.00000000
  22       0.00000000
  23      -0.00000000
Ene=     4.98639E-01
Spin= Alpha
Occup=   0.0000000000
   1      -0.00000000
   2      -0.00000000
   3       0.00000000
   4      -0.00000000
   5      -0.00000000
   6       0.00000000
   7      -0.00000000
   8       0.00000000
   9      -0.00000000
  10      -0.00000000
  11      -0.00000000
  12      -0.00000000
  13       0.00000000
  14       0.00000000
  15      -0.00000000
  16       0.00000000
  17      -0.00000000
  18      -0.01394716
  19       0.01189020
  20       0.00205696
  21      -0.33097423
  22      -0.01522183
  23       0.94339684
Ene=     4.98639E-01
Spin= Alpha
Occup=   0.0000000000
   1      -0.00000000
   2       0.00000000
   3       0.00000000
   4      -0.00000000
   5      -0.00000000
   6      -0.00000000
   7      -0.00000000
   8       0.00000000
   9       0.00000000
  10       0.00000000
  11       0.00000000
  12      -0.00000000
  13      -0.00000000
  14      -0.00000000
  15      -0.00000000
  16      -0.00000000
  17       0.00000000
  18      -0.00015027
  19       0.17321945
  20      -0.17306918
  21      -0.91764835
  22       0.12161596
  23      -0.32118390
Ene=     4.98639E-01
Spin= Alpha
Occup=   0.0000000000
   1      -0.00000000
   2       0.00000000
   3       0.00000000
   4       0.00000000
   5       0.00000000
   6       0.00000000
   7       0.00000000
   8      -0.00000000
   9       0.00000000
  10       0.00000000
  11      -0.00000000
  12      -0.00000000
  13      -0.00000000
  14      -0.00000000
  15       0.00000000
  16       0.00000000
  17       0.00000000
  18       0.26837037
  19       0.21371048
  20      -0.48208085
  21       0.17401290
  22       0.85468488
  23       0.07638994
Ene=     4.98639E-01
Spin= Alpha
Occup=   0.0000000000
   1      -0.00000000
   2      -0.00000000
   3      -0.00000000
   4      -0.00000000
   5      -0.00000000
   6       0.00000000
   7       0.00000000
   8      -0.00000000
   9      -0.00000000
  10      -0.00000000
  11       0.00000000
  12       0.00000000
  13       0.00000000
  14      -0.00000000
  15      -0.00000000
  16      -0.00000000
  17      -0.00000000
  18       0.35588510
  19       0.49979445
  20      -0.85567954
  21       0.09499114
  22      -0.50121926
  23       0.02579066
Ene=     4.98639E-01
Spin= Alpha
Occup=   0.0000000000
   1       0.00000000
   2      -0.00000000
   3      -0.00000000
   4       0.00000000
   5       0.00000000
   6       0.00000000
   7       0.00000000
   8       0.00000000
   9      -0.00000000
  10       0.00000000
  11      -0.00000000
  12      -0.00000000
  13       0.00000000
  14      -0.00000000
  15       0.00000000
  16       0.00000000
  17      -0.00000000
  18       0.89505787
  19      -0.82121068
  20      -0.07384719
  21      -0.09525628
  22      -0.05719145
  23      -0.01851262
Ene=     9.14929E-01
Spin= Alpha
Occup=   0.0000000000
   1       0.00000000
   2      -0.00000000
   3      -0.05570574
   4       0.34512491
   5      -1.34414826
   6      -0.00000000
   7       0.07260970
   8      -0.44985339
   9       1.75203134
  10       0.00000000
  11      -0.04515958
  12       0.27978614
  13      -1.08967522
  14      -0.00000000
  15       0.01533317
  16      -0.09499666
  17       0.36998080
  18      -0.00000000
  19      -0.00000000
  20      -0.00000000
  21       0.00000000
  22      -0.00000000
  23      -0.00000000
Ene=     9.14929E-01
Spin= Alpha
Occup=   0.0000000000
   1       0.00000000
   2       0.00000000
   3      -0.02757220
   4       1.34468995
   5       0.34640667
   6      -0.00000000
   7       0.03593901
   8      -1.75273741
   9      -0.45152411
  10      -0.00000000
  11      -0.02235225
  12       1.09011436
  13       0.28082524
  14       0.00000000
  15       0.00758933
  16      -0.37012990
  17      -0.09534946
  18       0.00000000
  19       0.00000000
  20       0.00000000
  21      -0.00000000
  22      -0.00000000
  23       0.00000000
Ene=     9.14929E-01
Spin= Alpha
Occup=   0.0000000000
   1      -0.00000000
   2      -0.00000000
   3       1.38747451
   4       0.04057840
   5      -0.04708237
   6       0.00000000
   7      -1.80850498
   8      -0.05289196
   9       0.06136956
  10       0.00000000
  11       1.12479898
  12       0.03289613
  13      -0.03816877
  14      -0.00000000
  15      -0.38190648
  16      -0.01116933
  17       0.01295956
  18       0.00000000
  19      -0.00000000
  20      -0.00000000
  21       0.00000000
  22      -0.00000000
  23      -0.00000000
Ene=     1.16558E+00
Spin= Alpha
Occup=   0.0000000000
   1       0.19026524
   2       0.69756473
   3       0.00000000
   4      -0.00000000
   5       0.00000000
   6      -2.82298904
   7      -0.00000000
   8       0.00000000
   9      -0.00000000
  10      -1.45447329
  11       0.00000000
  12      -0.00000000
  13       0.00000000
  14       0.50447034
  15      -0.00000000
  16       0.00000000
  17      -0.00000000
  18       1.67176290
  19       1.67176290
  20       1.67176290
  21       0.00000000
  22      -0.00000000
  23       0.00000000
Ene=     9.31867E+00
Spin= Alpha
Occup=   0.0000000000
   1      -1.91590540
   2       2.58162169
   3       0.00000000
   4      -0.00000000
   5      -0.00000000
   6      -2.07246915
   7       0.00000000
   8      -0.00000000
   9       0.00000000
  10      -0.38735433
  11       0.00000000
  12      -0.00000000
  13      -0.00000000
  14       0.15244934
  15       0.00000000
  16      -0.00000000
  17       0.00000000
  18       0.89462495
  19       0.89462495
  20       0.89462495
  21      -0.00000000
  22       0.00000000
  23      -0.00000000
