[Molden Format]
[Atoms] AU
E+       1       4     0.00000000     0.00000000     0.00000000
[GTO]
  1 0
s  1 1.00
   1.0000000000E-04   1.0000000000E+00
s  1 1.00
   3.0000000000E-04   1.0000000000E+00
s  1 1.00
   9.0000000000E-04   1.0000000000E+00
s  1 1.00
   2.7000000000E-03   1.0000000000E+00
s  1 1.00
   8.1000000000E-03   1.0000000000E+00
s  1 1.00
   2.4300000000E-02   1.0000000000E+00
s  1 1.00
   7.2900000000E-02   1.0000000000E+00
s  1 1.00
   2.1870000000E-01   1.0000000000E+00
s  1 1.00
   6.5610000000E-01   1.0000000000E+00
s  1 1.00
   1.9683000000E+00   1.0000000000E+00
p  1 1.00
   1.0000000000E-04   1.0000000000E+00
p  1 1.00
   3.0000000000E-04   1.0000000000E+00
p  1 1.00
   9.0000000000E-04   1.0000000000E+00
p  1 1.00
   2.7000000000E-03   1.0000000000E+00
d  1 1.00
   1.0000000000E-04   1.0000000000E+00
d  1 1.00
   3.0000000000E-04   1.0000000000E+00
 
 
[MO]
Ene=    -2.89703E-02
Spin= Alpha
Occup=   1.0000000000
   1      -0.02669280
   2      -0.02217987
   3       0.03625093
   4      -0.02186951
   5       0.28903335
   6       0.56441975
   7       0.36387663
   8      -0.19583158
   9      -0.03029688
  10       0.00125008
  11      -0.00000000
  12       0.00000000
  13      -0.00000000
  14       0.00000000
  15      -0.00000000
  16      -0.00000000
  17      -0.00000000
  18       0.00000000
  19       0.00000000
  20       0.00000000
  21      -0.00000000
  22      -0.00000000
  23       0.00388016
  24       0.00388016
  25       0.00388016
  26      -0.00000000
  27       0.00000000
  28       0.00000000
  29       0.01232379
  30       0.01232379
  31       0.01232379
  32       0.00000000
  33      -0.00000000
  34      -0.00000000
Ene=     7.71922E-05
Spin= Alpha
Occup=   0.0000000000
   1       1.98237307
   2      -0.71058453
   3      -0.18567406
   4       0.04423008
   5      -0.00230536
   6       0.01052904
   7       0.00347439
   8      -0.00197316
   9      -0.00038295
  10       0.00002114
  11      -0.00000000
  12       0.00000000
  13       0.00000000
  14       0.00000000
  15       0.00000000
  16      -0.00000000
  17      -0.00000000
  18      -0.00000000
  19       0.00000000
  20       0.00000000
  21       0.00000000
  22      -0.00000000
  23      -0.79619648
  24      -0.79619648
  25      -0.79619648
  26       0.00000000
  27      -0.00000000
  28      -0.00000000
  29      -0.36971676
  30      -0.36971676
  31      -0.36971676
  32      -0.00000000
  33      -0.00000000
  34      -0.00000000
Ene=     2.24661E-04
Spin= Alpha
Occup=   0.0000000000
   1      -0.00000000
   2       0.00000000
   3       0.00000000
   4      -0.00000000
   5       0.00000000
   6      -0.00000000
   7       0.00000000
   8      -0.00000000
   9      -0.00000000
  10       0.00000000
  11      -0.00764248
  12       1.18261167
  13       0.01964455
  14       0.00203513
  15      -0.31492044
  16      -0.00523119
  17      -0.00050626
  18       0.07833970
  19       0.00130131
  20       0.00008434
  21      -0.01305146
  22      -0.00021680
  23       0.00000000
  24      -0.00000000
  25       0.00000000
  26       0.00000000
  27       0.00000000
  28      -0.00000000
  29      -0.00000000
  30       0.00000000
  31       0.00000000
  32      -0.00000000
  33      -0.00000000
  34       0.00000000
Ene=     2.24661E-04
Spin= Alpha
Occup=   0.0000000000
   1       0.00000000
   2      -0.00000000
   3      -0.00000000
   4       0.00000000
   5      -0.00000000
   6      -0.00000000
   7      -0.00000000
   8       0.00000000
   9      -0.00000000
  10       0.00000000
  11       1.18276728
  12       0.00757125
  13       0.00434852
  14      -0.31496188
  15      -0.00201617
  16      -0.00115798
  17       0.07835001
  18       0.00050154
  19       0.00028806
  20      -0.01305317
  21      -0.00008356
  22      -0.00004799
  23      -0.00000000
  24       0.00000000
  25      -0.00000000
  26      -0.00000000
  27      -0.00000000
  28       0.00000000
  29       0.00000000
  30      -0.00000000
  31      -0.00000000
  32       0.00000000
  33       0.00000000
  34      -0.00000000
Ene=     2.24661E-04
Spin= Alpha
Occup=   0.0000000000
   1      -0.00000000
   2       0.00000000
   3      -0.00000000
   4      -0.00000000
   5       0.00000000
   6       0.00000000
   7      -0.00000000
   8       0.00000000
   9      -0.00000000
  10       0.00000000
  11      -0.00422209
  12      -0.01967212
  13       1.18262837
  14       0.00112431
  15       0.00523853
  16      -0.31492488
  17      -0.00027968
  18      -0.00130314
  19       0.07834080
  20       0.00004660
  21       0.00021710
  22      -0.01305164
  23      -0.00000000
  24       0.00000000
  25       0.00000000
  26       0.00000000
  27      -0.00000000
  28      -0.00000000
  29       0.00000000
  30      -0.00000000
  31       0.00000000
  32      -0.00000000
  33       0.00000000
  34       0.00000000
Ene=     3.29660E-04
Spin= Alpha
Occup=   0.0000000000
   1       6.63363854
   2      -1.73975597
   3      -0.50165636
   4       0.06905588
   5      -0.03839986
   6      -0.00987298
   7      -0.01108693
   8       0.00522914
   9       0.00055227
  10       0.00000145
  11      -0.00000000
  12       0.00000000
  13       0.00000000
  14       0.00000000
  15      -0.00000000
  16       0.00000000
  17      -0.00000000
  18       0.00000000
  19      -0.00000000
  20       0.00000000
  21      -0.00000000
  22      -0.00000000
  23      -1.50911350
  24      -1.50911350
  25      -1.50911350
  26      -0.00000000
  27       0.00000000
  28       0.00000000
  29      -0.87965714
  30      -0.87965714
  31      -0.87965714
  32       0.00000000
  33      -0.00000000
  34      -0.00000000
Ene=     3.30709E-04
Spin= Alpha
Occup=   0.0000000000
   1       0.00000000
   2      -0.00000000
   3      -0.00000000
   4       0.00000000
   5      -0.00000000
   6      -0.00000000
   7      -0.00000000
   8       0.00000000
   9       0.00000000
  10       0.00000000
  11      -0.00000000
  12       0.00000000
  13      -0.00000000
  14       0.00000000
  15       0.00000000
  16      -0.00000000
  17      -0.00000000
  18      -0.00000000
  19       0.00000000
  20       0.00000000
  21      -0.00000000
  22      -0.00000000
  23       0.48624867
  24       0.60494325
  25      -1.09119191
  26      -0.00374954
  27      -0.05777499
  28      -0.07640606
  29      -0.07890573
  30      -0.09816683
  31       0.17707255
  32       0.00060845
  33       0.00937540
  34       0.01239875
Ene=     3.30709E-04
Spin= Alpha
Occup=   0.0000000000
   1      -0.00000000
   2       0.00000000
   3       0.00000000
   4      -0.00000000
   5       0.00000000
   6       0.00000000
   7       0.00000000
   8      -0.00000000
   9      -0.00000000
  10      -0.00000000
  11       0.00000000
  12      -0.00000000
  13       0.00000000
  14      -0.00000000
  15       0.00000000
  16       0.00000000
  17       0.00000000
  18      -0.00000000
  19      -0.00000000
  20      -0.00000000
  21       0.00000000
  22       0.00000000
  23       0.98355925
  24      -0.90862553
  25      -0.07493371
  26       0.01331729
  27       0.03130135
  28       0.06602443
  29      -0.15960652
  30       0.14744670
  31       0.01215983
  32      -0.00216106
  33      -0.00507941
  34      -0.01071408
Ene=     3.30709E-04
Spin= Alpha
Occup=   0.0000000000
   1       0.00000000
   2      -0.00000000
   3      -0.00000000
   4       0.00000000
   5      -0.00000000
   6      -0.00000000
   7      -0.00000000
   8       0.00000000
   9       0.00000000
  10      -0.00000000
  11       0.00000000
  12      -0.00000000
  13      -0.00000000
  14      -0.00000000
  15       0.00000000
  16       0.00000000
  17       0.00000000
  18       0.00000000
  19      -0.00000000
  20       0.00000000
  21      -0.00000000
  22       0.00000000
  23      -0.01049445
  24       0.03352739
  25      -0.02303294
  26       1.02099012
  27       0.40122990
  28      -0.00175664
  29       0.00170298
  30      -0.00544064
  31       0.00373766
  32      -0.16568060
  33      -0.06510936
  34       0.00028506
Ene=     3.30709E-04
Spin= Alpha
Occup=   0.0000000000
   1      -0.00000000
   2       0.00000000
   3       0.00000000
   4      -0.00000000
   5       0.00000000
   6       0.00000000
   7       0.00000000
   8      -0.00000000
   9      -0.00000000
  10       0.00000000
  11      -0.00000000
  12      -0.00000000
  13      -0.00000000
  14       0.00000000
  15       0.00000000
  16       0.00000000
  17      -0.00000000
  18      -0.00000000
  19      -0.00000000
  20      -0.00000000
  21       0.00000000
  22       0.00000000
  23      -0.00125346
  24      -0.04988350
  25       0.05113696
  26       0.40245343
  27      -1.01940881
  28      -0.00441007
  29       0.00020340
  30       0.00809482
  31      -0.00829822
  32      -0.06530790
  33       0.16542399
  34       0.00071564
Ene=     3.30709E-04
Spin= Alpha
Occup=   0.0000000000
   1      -0.00000000
   2       0.00000000
   3       0.00000000
   4      -0.00000000
   5       0.00000000
   6       0.00000000
   7       0.00000000
   8      -0.00000000
   9      -0.00000000
  10      -0.00000000
  11       0.00000000
  12      -0.00000000
  13      -0.00000000
  14      -0.00000000
  15       0.00000000
  16       0.00000000
  17      -0.00000000
  18      -0.00000000
  19      -0.00000000
  20       0.00000000
  21       0.00000000
  22       0.00000000
  23       0.02544726
  24      -0.09703960
  25       0.07159234
  26      -0.00219844
  27       0.00939898
  28      -1.09287061
  29      -0.00412944
  30       0.01574705
  31      -0.01161761
  32       0.00035675
  33      -0.00152521
  34       0.17734496
Ene=     8.53691E-04
Spin= Alpha
Occup=   0.0000000000
   1     -10.21312976
   2       3.50743126
   3       0.93577786
   4      -0.20934712
   5       0.01730447
   6      -0.04176170
   7      -0.01209592
   8       0.00708187
   9       0.00146859
  10      -0.00008745
  11      -0.00000000
  12       0.00000000
  13      -0.00000000
  14       0.00000000
  15      -0.00000000
  16       0.00000000
  17      -0.00000000
  18       0.00000000
  19      -0.00000000
  20       0.00000000
  21       0.00000000
  22      -0.00000000
  23       1.74423245
  24       1.74423245
  25       1.74423245
  26       0.00000000
  27       0.00000000
  28      -0.00000000
  29       1.95957461
  30       1.95957461
  31       1.95957461
  32      -0.00000000
  33      -0.00000000
  34       0.00000000
Ene=     9.18566E-04
Spin= Alpha
Occup=   0.0000000000
   1      -0.00000000
   2       0.00000000
   3       0.00000000
   4      -0.00000000
   5       0.00000000
   6       0.00000000
   7      -0.00000000
   8       0.00000000
   9       0.00000000
  10      -0.00000000
  11       0.01885777
  12      -0.88295868
  13      -0.00036675
  14      -0.03513979
  15       1.64531557
  16       0.00068341
  17       0.00711392
  18      -0.33308798
  19      -0.00013835
  20      -0.00171050
  21       0.08008894
  22       0.00003327
  23       0.00000000
  24       0.00000000
  25       0.00000000
  26      -0.00000000
  27      -0.00000000
  28       0.00000000
  29       0.00000000
  30      -0.00000000
  31       0.00000000
  32       0.00000000
  33       0.00000000
  34      -0.00000000
Ene=     9.18566E-04
Spin= Alpha
Occup=   0.0000000000
   1       0.00000000
   2      -0.00000000
   3      -0.00000000
   4       0.00000000
   5       0.00000000
   6      -0.00000000
   7       0.00000000
   8      -0.00000000
   9      -0.00000000
  10       0.00000000
  11      -0.88293329
  12      -0.01886001
  13       0.00669965
  14       1.64526826
  15       0.03514396
  16      -0.01248422
  17      -0.33307840
  18      -0.00711476
  19       0.00252738
  20       0.08008664
  21       0.00171070
  22      -0.00060769
  23      -0.00000000
  24      -0.00000000
  25      -0.00000000
  26       0.00000000
  27      -0.00000000
  28      -0.00000000
  29      -0.00000000
  30      -0.00000000
  31      -0.00000000
  32      -0.00000000
  33      -0.00000000
  34       0.00000000
Ene=     9.18566E-04
Spin= Alpha
Occup=   0.0000000000
   1       0.00000000
   2      -0.00000000
   3      -0.00000000
   4      -0.00000000
   5       0.00000000
   6       0.00000000
   7       0.00000000
   8      -0.00000000
   9       0.00000000
  10      -0.00000000
  11      -0.00670596
  12       0.00022360
  13      -0.88313463
  14       0.01249596
  15      -0.00041667
  16       1.64564342
  17      -0.00252976
  18       0.00008435
  19      -0.33315435
  20       0.00060827
  21      -0.00002028
  22       0.08010490
  23      -0.00000000
  24      -0.00000000
  25      -0.00000000
  26      -0.00000000
  27      -0.00000000
  28       0.00000000
  29      -0.00000000
  30      -0.00000000
  31      -0.00000000
  32       0.00000000
  33       0.00000000
  34       0.00000000
Ene=     1.26337E-03
Spin= Alpha
Occup=   0.0000000000
   1      -0.00000000
   2      -0.00000000
   3       0.00000000
   4      -0.00000000
   5       0.00000000
   6      -0.00000000
   7       0.00000000
   8      -0.00000000
   9      -0.00000000
  10      -0.00000000
  11      -0.00000000
  12       0.00000000
  13      -0.00000000
  14       0.00000000
  15      -0.00000000
  16       0.00000000
  17      -0.00000000
  18       0.00000000
  19      -0.00000000
  20       0.00000000
  21       0.00000000
  22       0.00000000
  23       0.24359860
  24       0.36115464
  25      -0.60475324
  26       0.00010344
  27      -0.01050802
  28      -0.02556388
  29      -0.49687768
  30      -0.73666136
  31       1.23353904
  32      -0.00021100
  33       0.02143362
  34       0.05214366
Ene=     1.26337E-03
Spin= Alpha
Occup=   0.0000000000
   1       0.00000000
   2      -0.00000000
   3      -0.00000000
   4       0.00000000
   5      -0.00000000
   6       0.00000000
   7      -0.00000000
   8      -0.00000000
   9      -0.00000000
  10      -0.00000000
  11      -0.00000000
  12       0.00000000
  13      -0.00000000
  14       0.00000000
  15      -0.00000000
  16       0.00000000
  17      -0.00000000
  18       0.00000000
  19      -0.00000000
  20       0.00000000
  21      -0.00000000
  22       0.00000000
  23      -0.55647833
  24       0.48629507
  25       0.07018326
  26       0.01157944
  27      -0.03794337
  28      -0.04624539
  29       1.13507080
  30      -0.99191523
  31      -0.14315557
  32      -0.02361904
  33       0.07739459
  34       0.09432854
Ene=     1.26337E-03
Spin= Alpha
Occup=   0.0000000000
   1      -0.00000000
   2       0.00000000
   3      -0.00000000
   4       0.00000000
   5      -0.00000000
   6       0.00000000
   7      -0.00000000
   8       0.00000000
   9      -0.00000000
  10       0.00000000
  11      -0.00000000
  12       0.00000000
  13       0.00000000
  14       0.00000000
  15      -0.00000000
  16      -0.00000000
  17       0.00000000
  18      -0.00000000
  19       0.00000000
  20      -0.00000000
  21       0.00000000
  22      -0.00000000
  23      -0.00752855
  24       0.00570146
  25       0.00182709
  26      -0.60625311
  27      -0.05908595
  28      -0.00110907
  29       0.01535627
  30      -0.01162949
  31      -0.00372678
  32       1.23659838
  33       0.12051995
  34       0.00226221
Ene=     1.26337E-03
Spin= Alpha
Occup=   0.0000000000
   1       0.00000000
   2       0.00000000
   3      -0.00000000
   4       0.00000000
   5      -0.00000000
   6       0.00000000
   7      -0.00000000
   8       0.00000000
   9      -0.00000000
  10       0.00000000
  11      -0.00000000
  12       0.00000000
  13       0.00000000
  14       0.00000000
  15      -0.00000000
  16      -0.00000000
  17      -0.00000000
  18       0.00000000
  19       0.00000000
  20      -0.00000000
  21      -0.00000000
  22      -0.00000000
  23       0.03184118
  24      -0.03803884
  25       0.00619767
  26       0.05847999
  27      -0.60496908
  28      -0.00482151
  29      -0.06494771
  30       0.07758933
  31      -0.01264162
  32      -0.11928394
  33       1.23397930
  34       0.00983462
Ene=     1.26337E-03
Spin= Alpha
Occup=   0.0000000000
   1       0.00000000
   2       0.00000000
   3      -0.00000000
   4       0.00000000
   5      -0.00000000
   6       0.00000000
   7      -0.00000000
   8       0.00000000
   9      -0.00000000
  10       0.00000000
  11       0.00000000
  12      -0.00000000
  13       0.00000000
  14      -0.00000000
  15       0.00000000
  16       0.00000000
  17       0.00000000
  18      -0.00000000
  19      -0.00000000
  20      -0.00000000
  21       0.00000000
  22       0.00000000
  23       0.03190526
  24      -0.05197951
  25       0.02007425
  26      -0.00024343
  27       0.00824855
  28      -0.60686100
  29      -0.06507842
  30       0.10602466
  31      -0.04094624
  32       0.00049653
  33      -0.01682490
  34       1.23783832
Ene=     1.88093E-03
Spin= Alpha
Occup=   0.0000000000
   1      10.22602960
   2       0.83916690
   3      -2.41048152
   4       0.29858047
   5      -0.14136977
   6      -0.02309592
   7      -0.03472692
   8       0.01597726
   9       0.00149605
  10       0.00002850
  11       0.00000000
  12      -0.00000000
  13       0.00000000
  14      -0.00000000
  15       0.00000000
  16      -0.00000000
  17       0.00000000
  18      -0.00000000
  19       0.00000000
  20       0.00000000
  21       0.00000000
  22      -0.00000000
  23      -1.52287738
  24      -1.52287738
  25      -1.52287738
  26       0.00000000
  27       0.00000000
  28       0.00000000
  29      -3.41895140
  30      -3.41895140
  31      -3.41895140
  32      -0.00000000
  33      -0.00000000
  34      -0.00000000
Ene=     3.00628E-03
Spin= Alpha
Occup=   0.0000000000
   1      -0.00000000
   2      -0.00000000
   3       0.00000000
   4      -0.00000000
   5       0.00000000
   6      -0.00000000
   7       0.00000000
   8       0.00000000
   9      -0.00000000
  10       0.00000000
  11       0.00307496
  12      -0.46435018
  13       0.01453704
  14      -0.00881947
  15       1.33182893
  16      -0.04169450
  17       0.01108452
  18      -1.67387444
  19       0.05240264
  20      -0.00110227
  21       0.16645435
  22      -0.00521105
  23       0.00000000
  24       0.00000000
  25       0.00000000
  26      -0.00000000
  27       0.00000000
  28       0.00000000
  29       0.00000000
  30       0.00000000
  31       0.00000000
  32      -0.00000000
  33      -0.00000000
  34      -0.00000000
Ene=     3.00628E-03
Spin= Alpha
Occup=   0.0000000000
   1       0.00000000
   2      -0.00000000
   3      -0.00000000
   4       0.00000000
   5      -0.00000000
   6      -0.00000000
   7      -0.00000000
   8       0.00000000
   9      -0.00000000
  10       0.00000000
  11       0.00146983
  12      -0.01452756
  13      -0.46435833
  14      -0.00421571
  15       0.04166731
  16       1.33185231
  17       0.00529840
  18      -0.05236847
  19      -1.67390382
  20      -0.00052689
  21       0.00520765
  22       0.16645727
  23      -0.00000000
  24      -0.00000000
  25      -0.00000000
  26       0.00000000
  27      -0.00000000
  28       0.00000000
  29      -0.00000000
  30      -0.00000000
  31      -0.00000000
  32       0.00000000
  33       0.00000000
  34      -0.00000000
Ene=     3.00628E-03
Spin= Alpha
Occup=   0.0000000000
   1      -0.00000000
   2      -0.00000000
   3       0.00000000
   4      -0.00000000
   5       0.00000000
   6      -0.00000000
   7      -0.00000000
   8      -0.00000000
   9       0.00000000
  10      -0.00000000
  11       0.46457535
  12       0.00311943
  13       0.00137293
  14      -1.33247475
  15      -0.00894703
  16      -0.00393777
  17       1.67468612
  18       0.01124484
  19       0.00494908
  20      -0.16653506
  21      -0.00111822
  22      -0.00049215
  23       0.00000000
  24       0.00000000
  25       0.00000000
  26      -0.00000000
  27      -0.00000000
  28      -0.00000000
  29       0.00000000
  30       0.00000000
  31       0.00000000
  32      -0.00000000
  33       0.00000000
  34      -0.00000000
Ene=     4.23329E-03
Spin= Alpha
Occup=   0.0000000000
   1       7.48667476
   2       5.28087892
   3      -6.66999136
   4       1.34960005
   5      -0.15548772
   6       0.16744587
   7       0.03159625
   8      -0.02085713
   9      -0.00532757
  10       0.00037994
  11       0.00000000
  12      -0.00000000
  13      -0.00000000
  14      -0.00000000
  15       0.00000000
  16      -0.00000000
  17       0.00000000
  18      -0.00000000
  19      -0.00000000
  20      -0.00000000
  21       0.00000000
  22       0.00000000
  23      -1.06528089
  24      -1.06528089
  25      -1.06528089
  26       0.00000000
  27       0.00000000
  28       0.00000000
  29      -3.40180946
  30      -3.40180946
  31      -3.40180946
  32      -0.00000000
  33      -0.00000000
  34      -0.00000000
Ene=     8.18484E-03
Spin= Alpha
Occup=   0.0000000000
   1       0.00000000
   2       0.00000000
   3      -0.00000000
   4       0.00000000
   5      -0.00000000
   6       0.00000000
   7      -0.00000000
   8      -0.00000000
   9       0.00000000
  10       0.00000000
  11      -0.00405561
  12       0.23984309
  13      -0.00262819
  14       0.01266283
  15      -0.74886269
  16       0.00820600
  17      -0.02520211
  18       1.49041901
  19      -0.01633193
  20       0.02628895
  21      -1.55469356
  22       0.01703625
  23      -0.00000000
  24      -0.00000000
  25      -0.00000000
  26       0.00000000
  27       0.00000000
  28      -0.00000000
  29      -0.00000000
  30      -0.00000000
  31      -0.00000000
  32       0.00000000
  33      -0.00000000
  34       0.00000000
Ene=     8.18484E-03
Spin= Alpha
Occup=   0.0000000000
   1       0.00000000
   2      -0.00000000
   3      -0.00000000
   4       0.00000000
   5      -0.00000000
   6       0.00000000
   7      -0.00000000
   8       0.00000000
   9      -0.00000000
  10      -0.00000000
  11       0.01222185
  12      -0.00241851
  13      -0.23956803
  14      -0.03816031
  15       0.00755132
  16       0.74800387
  17       0.07594830
  18      -0.01502896
  19      -1.48870974
  20      -0.07922358
  21       0.01567709
  22       1.55291058
  23      -0.00000000
  24      -0.00000000
  25      -0.00000000
  26      -0.00000000
  27       0.00000000
  28       0.00000000
  29      -0.00000000
  30      -0.00000000
  31      -0.00000000
  32       0.00000000
  33       0.00000000
  34      -0.00000000
Ene=     8.18484E-03
Spin= Alpha
Occup=   0.0000000000
   1       0.00000000
   2       0.00000000
   3      -0.00000000
   4       0.00000000
   5      -0.00000000
   6      -0.00000000
   7      -0.00000000
   8      -0.00000000
   9       0.00000000
  10      -0.00000000
  11      -0.23954591
  12      -0.00418403
  13      -0.01217848
  14       0.74793480
  15       0.01306381
  16       0.03802490
  17      -1.48857227
  18      -0.02600017
  19      -0.07567881
  20       1.55276719
  21       0.02712143
  22       0.07894247
  23      -0.00000000
  24       0.00000000
  25      -0.00000000
  26      -0.00000000
  27      -0.00000000
  28       0.00000000
  29       0.00000000
  30      -0.00000000
  31      -0.00000000
  32       0.00000000
  33       0.00000000
  34      -0.00000000
Ene=     1.15953E-02
Spin= Alpha
Occup=   0.0000000000
   1       4.36558657
   2       4.21182530
   3      -6.48199043
   4       4.33150339
   5      -1.47644206
   6       0.06184126
   7      -0.19579920
   8       0.08032346
   9       0.00306294
  10       0.00070186
  11       0.00000000
  12      -0.00000000
  13       0.00000000
  14      -0.00000000
  15       0.00000000
  16      -0.00000000
  17       0.00000000
  18      -0.00000000
  19       0.00000000
  20      -0.00000000
  21       0.00000000
  22      -0.00000000
  23      -0.62104822
  24      -0.62104822
  25      -0.62104822
  26       0.00000000
  27       0.00000000
  28       0.00000000
  29      -2.13999096
  30      -2.13999096
  31      -2.13999096
  32      -0.00000000
  33      -0.00000000
  34      -0.00000000
Ene=     3.97377E-02
Spin= Alpha
Occup=   0.0000000000
   1      -2.27028869
   2      -2.18317775
   3       3.61990187
   4      -3.69408824
   5       4.02648298
   6      -2.16260860
   7       0.08914207
   8       0.03934459
   9       0.04283452
  10      -0.00462666
  11       0.00000000
  12       0.00000000
  13      -0.00000000
  14       0.00000000
  15      -0.00000000
  16       0.00000000
  17       0.00000000
  18       0.00000000
  19      -0.00000000
  20      -0.00000000
  21      -0.00000000
  22       0.00000000
  23       0.32537841
  24       0.32537841
  25       0.32537841
  26      -0.00000000
  27      -0.00000000
  28      -0.00000000
  29       1.10288598
  30       1.10288598
  31       1.10288598
  32       0.00000000
  33       0.00000000
  34       0.00000000
Ene=     1.59140E-01
Spin= Alpha
Occup=   0.0000000000
   1      -1.08652831
   2      -1.01122395
   3       1.68843606
   4      -1.82264916
   5       2.78160694
   6      -3.89666045
   7       3.23320419
   8      -0.88174749
   9       0.07566187
  10      -0.02066867
  11      -0.00000000
  12       0.00000000
  13       0.00000000
  14       0.00000000
  15      -0.00000000
  16      -0.00000000
  17      -0.00000000
  18       0.00000000
  19       0.00000000
  20       0.00000000
  21      -0.00000000
  22      -0.00000000
  23       0.15633949
  24       0.15633949
  25       0.15633949
  26      -0.00000000
  27      -0.00000000
  28      -0.00000000
  29       0.52124188
  30       0.52124188
  31       0.52124188
  32       0.00000000
  33       0.00000000
  34       0.00000000
Ene=     7.65055E-01
Spin= Alpha
Occup=   0.0000000000
   1      -0.44948922
   2      -0.41162840
   3       0.68560700
   4      -0.72780813
   5       1.12987805
   6      -1.94255703
   7       3.10031764
   8      -3.34976398
   9       1.17573320
  10      -0.13233013
  11      -0.00000000
  12       0.00000000
  13       0.00000000
  14       0.00000000
  15      -0.00000000
  16      -0.00000000
  17      -0.00000000
  18       0.00000000
  19       0.00000000
  20      -0.00000000
  21      -0.00000000
  22      -0.00000000
  23       0.06477132
  24       0.06477132
  25       0.06477132
  26      -0.00000000
  27      -0.00000000
  28      -0.00000000
  29       0.21442991
  30       0.21442991
  31       0.21442991
  32       0.00000000
  33       0.00000000
  34       0.00000000
Ene=     2.73068E+00
Spin= Alpha
Occup=   0.0000000000
   1       0.21167083
   2       0.19307673
   3      -0.32128683
   4       0.33865828
   5      -0.52030156
   6       0.89857506
   7      -1.59513406
   8       2.61054115
   9      -2.92463022
  10       0.80028364
  11       0.00000000
  12      -0.00000000
  13      -0.00000000
  14      -0.00000000
  15       0.00000000
  16       0.00000000
  17       0.00000000
  18      -0.00000000
  19      -0.00000000
  20       0.00000000
  21       0.00000000
  22       0.00000000
  23      -0.03051176
  24      -0.03051176
  25      -0.03051176
  26      -0.00000000
  27       0.00000000
  28      -0.00000000
  29      -0.10084363
  30      -0.10084363
  31      -0.10084363
  32      -0.00000000
  33      -0.00000000
  34      -0.00000000
Ene=     1.03605E+01
Spin= Alpha
Occup=   0.0000000000
   1      -0.10908724
   2      -0.09936356
   3       0.16527738
   4      -0.17367120
   5       0.26504652
   6      -0.45260848
   7       0.79899406
   8      -1.39353592
   9       2.15946691
  10      -1.98247012
  11       0.00000000
  12       0.00000000
  13       0.00000000
  14       0.00000000
  15      -0.00000000
  16      -0.00000000
  17      -0.00000000
  18       0.00000000
  19       0.00000000
  20       0.00000000
  21      -0.00000000
  22      -0.00000000
  23       0.01572638
  24       0.01572638
  25       0.01572638
  26       0.00000000
  27      -0.00000000
  28      -0.00000000
  29       0.05194661
  30       0.05194661
  31       0.05194661
  32      -0.00000000
  33       0.00000000
  34      -0.00000000
