[Molden Format]
[Atoms] AU
BE       1       4     0.00000000     0.00000000     0.00000000
[GTO]
  1 0
s  6 1.00
   1.6828000000E+03   2.2857400000E-03
   2.5171500000E+02   1.7593800000E-02
   5.7411600000E+01   8.6331500000E-02
   1.6517100000E+01   2.8183500000E-01
   4.8536400000E+00   6.4059400000E-01
   6.2686300000E-01   1.4446700000E-01
s  3 1.00
   8.3093800000E+00   1.0862100000E-01
   1.7407500000E+00   9.2730100000E-01
   4.8581600000E-01  -2.9716900000E-03
p  3 1.00
   8.3093800000E+00   3.6134400000E-02
   1.7407500000E+00   2.1695800000E-01
   4.8581600000E-01   8.4183900000E-01
s  1 1.00
   1.6361300000E-01   1.0000000000E+00
p  1 1.00
   1.6361300000E-01   1.0000000000E+00
s  1 1.00
   5.6728500000E-02   1.0000000000E+00
p  1 1.00
   5.6728500000E-02   1.0000000000E+00
s  1 1.00
   2.0700000000E-02   1.0000000000E+00
p  1 1.00
   2.0700000000E-02   1.0000000000E+00
d  1 1.00
   2.5500000000E-01   1.0000000000E+00
 
 
[MO]
Ene=    -4.13654E+00
Spin= Alpha
Occup=   2.0000000000
   1       0.59620927
   2       0.43510898
   3       0.00000000
   4       0.00000000
   5      -0.00000000
   6       0.03369183
   7       0.00000000
   8      -0.00000000
   9      -0.00000000
  10       0.00261187
  11       0.00000000
  12       0.00000000
  13       0.00000000
  14      -0.00128292
  15       0.00000000
  16      -0.00000000
  17      -0.00000000
  18      -0.01210832
  19      -0.01210832
  20      -0.01210832
  21      -0.00000000
  22       0.00000000
  23       0.00000000
Ene=    -2.69243E-01
Spin= Alpha
Occup=   2.0000000000
   1       0.11797108
   2       0.17920550
   3      -0.00000000
   4       0.00000000
   5       0.00000000
   6      -0.60963901
   7      -0.00000000
   8       0.00000000
   9       0.00000000
  10      -0.31605409
  11      -0.00000000
  12      -0.00000000
  13      -0.00000000
  14      -0.25303891
  15      -0.00000000
  16       0.00000000
  17       0.00000000
  18       0.01175681
  19       0.01175681
  20       0.01175681
  21      -0.00000000
  22      -0.00000000
  23       0.00000000
Ene=    -1.53243E-01
Spin= Alpha
Occup=   0.0000000000
   1      -0.00000000
   2      -0.00000000
   3      -0.04252736
   4      -0.00106861
   5      -0.00169886
   6      -0.00000000
   7      -0.21708467
   8      -0.00545480
   9      -0.00867198
  10       0.00000000
  11       0.43767467
  12       0.01099768
  13       0.01748398
  14      -0.00000000
  15      -1.22661560
  16      -0.03082182
  17      -0.04900015
  18      -0.00000000
  19      -0.00000000
  20      -0.00000000
  21      -0.00000000
  22       0.00000000
  23       0.00000000
Ene=    -1.53243E-01
Spin= Alpha
Occup=   0.0000000000
   1       0.00000000
   2      -0.00000000
   3      -0.00078786
   4       0.04203400
   5      -0.00671761
   6       0.00000000
   7      -0.00402170
   8       0.21456629
   9      -0.03429061
  10      -0.00000000
  11       0.00810834
  12      -0.43259724
  13       0.06913493
  14       0.00000000
  15      -0.02272421
  16       1.21238573
  17      -0.19375574
  18       0.00000000
  19      -0.00000000
  20       0.00000000
  21       0.00000000
  22      -0.00000000
  23      -0.00000000
Ene=    -1.53243E-01
Spin= Alpha
Occup=   0.0000000000
   1       0.00000000
   2       0.00000000
   3       0.00184589
   4      -0.00667870
   5      -0.04200705
   6       0.00000000
   7       0.00942252
   8      -0.03409201
   9      -0.21442869
  10      -0.00000000
  11      -0.01899720
  12       0.06873452
  13       0.43231982
  14       0.00000000
  15       0.05324105
  16      -0.19263357
  17      -1.21160824
  18       0.00000000
  19       0.00000000
  20       0.00000000
  21      -0.00000000
  22      -0.00000000
  23       0.00000000
Ene=    -1.33162E-01
Spin= Alpha
Occup=   0.0000000000
   1       0.04602320
   2       0.08925869
   3      -0.00000000
   4       0.00000000
   5       0.00000000
   6      -0.03749902
   7      -0.00000000
   8       0.00000000
   9       0.00000000
  10      -1.68129477
  11       0.00000000
  12       0.00000000
  13      -0.00000000
  14       1.88861571
  15      -0.00000000
  16       0.00000000
  17       0.00000000
  18       0.07411805
  19       0.07411805
  20       0.07411805
  21       0.00000000
  22      -0.00000000
  23       0.00000000
Ene=    -7.71568E-02
Spin= Alpha
Occup=   0.0000000000
   1      -0.00000000
   2      -0.00000000
   3      -0.19417185
   4       0.04519121
   5       0.17787523
   6       0.00000000
   7      -0.13358505
   8       0.03109035
   9       0.12237341
  10       0.00000000
  11      -0.78225315
  12       0.18206021
  13       0.71659956
  14      -0.00000000
  15       0.58559403
  16      -0.13629011
  17      -0.53644581
  18      -0.00000000
  19       0.00000000
  20       0.00000000
  21       0.00000000
  22      -0.00000000
  23       0.00000000
Ene=    -7.71568E-02
Spin= Alpha
Occup=   0.0000000000
   1       0.00000000
   2       0.00000000
   3       0.17589271
   4      -0.02808247
   5       0.19914236
   6       0.00000000
   7       0.12100949
   8      -0.01931999
   9       0.13700463
  10      -0.00000000
  11       0.70861265
  12      -0.11313485
  13       0.80227767
  14       0.00000000
  15      -0.53046682
  16       0.08469265
  17      -0.60058437
  18       0.00000000
  19       0.00000000
  20       0.00000000
  21      -0.00000000
  22       0.00000000
  23       0.00000000
Ene=    -7.71568E-02
Spin= Alpha
Occup=   0.0000000000
   1      -0.00000000
   2      -0.00000000
   3      -0.05237937
   4      -0.26182758
   5       0.00934198
   6       0.00000000
   7      -0.03603561
   8      -0.18013038
   9       0.00642703
  10      -0.00000000
  11      -0.21101888
  12      -1.05481535
  13       0.03763569
  14       0.00000000
  15       0.15796855
  16       0.78963386
  17      -0.02817404
  18       0.00000000
  19      -0.00000000
  20       0.00000000
  21       0.00000000
  22      -0.00000000
  23      -0.00000000
Ene=     1.45446E-01
Spin= Alpha
Occup=   0.0000000000
   1       0.00000000
   2       0.00000000
   3      -0.04529310
   4      -0.00138988
   5      -0.24831989
   6      -0.00000000
   7      -0.21537007
   8      -0.00660892
   9      -1.18076876
  10       0.00000000
  11       0.32703804
  12       0.01003560
  13       1.79298958
  14      -0.00000000
  15      -0.13321637
  16      -0.00408792
  17      -0.73036018
  18      -0.00000000
  19      -0.00000000
  20      -0.00000000
  21       0.00000000
  22       0.00000000
  23      -0.00000000
Ene=     1.45446E-01
Spin= Alpha
Occup=   0.0000000000
   1      -0.00000000
   2      -0.00000000
   3       0.22484783
   4      -0.10736191
   5      -0.04041092
   6       0.00000000
   7       1.06915836
   8      -0.51050917
   9      -0.19215515
  10      -0.00000000
  11      -1.62350992
  12       0.77520482
  13       0.29178633
  14       0.00000000
  15       0.66132398
  16      -0.31577357
  17      -0.11885686
  18       0.00000000
  19       0.00000000
  20       0.00000000
  21       0.00000000
  22       0.00000000
  23      -0.00000000
Ene=     1.45446E-01
Spin= Alpha
Occup=   0.0000000000
   1       0.00000000
   2       0.00000000
   3      -0.10539524
   4      -0.22844618
   5       0.02050254
   6      -0.00000000
   7      -0.50115761
   8      -1.08626862
   9       0.09749023
  10       0.00000000
  11       0.76100453
  12       1.64949175
  13      -0.14803827
  14      -0.00000000
  15      -0.30998920
  16      -0.67190747
  17       0.06030222
  18      -0.00000000
  19      -0.00000000
  20      -0.00000000
  21      -0.00000000
  22       0.00000000
  23       0.00000000
Ene=     1.48709E-01
Spin= Alpha
Occup=   0.0000000000
   1      -0.11597599
   2      -0.13310499
   3      -0.00000000
   4      -0.00000000
   5      -0.00000000
   6       1.83981490
   7      -0.00000000
   8       0.00000000
   9      -0.00000000
  10      -3.17364132
  11       0.00000000
  12      -0.00000000
  13       0.00000000
  14       1.23532907
  15      -0.00000000
  16       0.00000000
  17      -0.00000000
  18       0.22441715
  19       0.22441715
  20       0.22441715
  21      -0.00000000
  22      -0.00000000
  23      -0.00000000
Ene=     4.91433E-01
Spin= Alpha
Occup=   0.0000000000
   1       0.00000000
   2      -0.00000000
   3       0.00000000
   4       0.00000000
   5      -0.00000000
   6      -0.00000000
   7      -0.00000000
   8      -0.00000000
   9       0.00000000
  10       0.00000000
  11       0.00000000
  12       0.00000000
  13      -0.00000000
  14      -0.00000000
  15      -0.00000000
  16      -0.00000000
  17      -0.00000000
  18      -0.16546548
  19       0.93497520
  20      -0.76950972
  21       0.06217529
  22      -0.01810328
  23       0.00217696
Ene=     4.91433E-01
Spin= Alpha
Occup=   0.0000000000
   1      -0.00000000
   2       0.00000000
   3       0.00000000
   4       0.00000000
   5      -0.00000000
   6       0.00000000
   7      -0.00000000
   8      -0.00000000
   9       0.00000000
  10      -0.00000000
  11      -0.00000000
  12      -0.00000000
  13       0.00000000
  14       0.00000000
  15      -0.00000000
  16       0.00000000
  17      -0.00000000
  18      -0.96736875
  19       0.33509206
  20       0.63227669
  21       0.13333841
  22      -0.01159300
  23       0.12978674
Ene=     4.91433E-01
Spin= Alpha
Occup=   0.0000000000
   1       0.00000000
   2      -0.00000000
   3       0.00000000
   4      -0.00000000
   5      -0.00000000
   6       0.00000000
   7       0.00000000
   8       0.00000000
   9      -0.00000000
  10      -0.00000000
  11      -0.00000000
  12      -0.00000000
  13       0.00000000
  14       0.00000000
  15       0.00000000
  16       0.00000000
  17      -0.00000000
  18       0.12766822
  19      -0.04624732
  20      -0.08142090
  21      -0.01100463
  22       0.01842596
  23       0.99137673
Ene=     4.91433E-01
Spin= Alpha
Occup=   0.0000000000
   1      -0.00000000
   2       0.00000000
   3       0.00000000
   4      -0.00000000
   5      -0.00000000
   6      -0.00000000
   7      -0.00000000
   8       0.00000000
   9      -0.00000000
  10      -0.00000000
  11       0.00000000
  12      -0.00000000
  13       0.00000000
  14       0.00000000
  15      -0.00000000
  16       0.00000000
  17      -0.00000000
  18      -0.13959525
  19       0.10150605
  20       0.03808921
  21      -0.98335354
  22      -0.11008436
  23       0.00835738
Ene=     4.91433E-01
Spin= Alpha
Occup=   0.0000000000
   1       0.00000000
   2       0.00000000
   3       0.00000000
   4       0.00000000
   5      -0.00000000
   6      -0.00000000
   7      -0.00000000
   8       0.00000000
   9       0.00000000
  10      -0.00000000
  11       0.00000000
  12      -0.00000000
  13      -0.00000000
  14       0.00000000
  15      -0.00000000
  16       0.00000000
  17       0.00000000
  18      -0.03213813
  19       0.03305143
  20      -0.00091330
  21      -0.10606512
  22       0.99351889
  23      -0.01590611
Ene=     9.07810E-01
Spin= Alpha
Occup=   0.0000000000
   1      -0.00000000
   2      -0.00000000
   3       0.06578115
   4       0.17154445
   5       1.37784785
   6       0.00000000
   7      -0.08550104
   8      -0.22297007
   9      -1.79089935
  10      -0.00000000
  11       0.05315127
  12       0.13860816
  13       1.11330305
  14       0.00000000
  15      -0.01820442
  16      -0.04747357
  17      -0.38130854
  18      -0.00000000
  19       0.00000000
  20       0.00000000
  21      -0.00000000
  22       0.00000000
  23       0.00000000
Ene=     9.07810E-01
Spin= Alpha
Occup=   0.0000000000
   1       0.00000000
   2       0.00000000
   3      -0.04124736
   4       1.37902592
   5      -0.16972189
   6      -0.00000000
   7       0.05361250
   8      -1.79243058
   9       0.22060115
  10       0.00000000
  11      -0.03332792
  12       1.11425494
  13      -0.13713553
  14       0.00000000
  15       0.01141488
  16      -0.38163456
  17       0.04696920
  18       0.00000000
  19       0.00000000
  20       0.00000000
  21      -0.00000000
  22      -0.00000000
  23       0.00000000
Ene=     9.07810E-01
Spin= Alpha
Occup=   0.0000000000
   1      -0.00000000
   2       0.00000000
   3      -1.38787277
   4      -0.03285372
   5       0.07035011
   6      -0.00000000
   7       1.80392955
   8       0.04270261
   9      -0.09143968
  10       0.00000000
  11      -1.12140321
  12      -0.02654585
  13       0.05684299
  14      -0.00000000
  15       0.38408286
  16       0.00909201
  17      -0.01946884
  18      -0.00000000
  19       0.00000000
  20       0.00000000
  21      -0.00000000
  22       0.00000000
  23       0.00000000
Ene=     1.15842E+00
Spin= Alpha
Occup=   0.0000000000
   1       0.19049803
   2       0.69837748
   3       0.00000000
   4      -0.00000000
   5       0.00000000
   6      -2.82774543
   7      -0.00000000
   8       0.00000000
   9      -0.00000000
  10      -1.45262945
  11       0.00000000
  12      -0.00000000
  13       0.00000000
  14       0.50839268
  15      -0.00000000
  16       0.00000000
  17       0.00000000
  18       1.67156250
  19       1.67156250
  20       1.67156250
  21       0.00000000
  22      -0.00000000
  23       0.00000000
Ene=     9.31383E+00
Spin= Alpha
Occup=   0.0000000000
   1      -1.91588590
   2       2.58160324
   3       0.00000000
   4      -0.00000000
   5      -0.00000000
   6      -2.07239203
   7       0.00000000
   8      -0.00000000
   9       0.00000000
  10      -0.38726576
  11       0.00000000
  12      -0.00000000
  13      -0.00000000
  14       0.15262454
  15       0.00000000
  16      -0.00000000
  17       0.00000000
  18       0.89447706
  19       0.89447706
  20       0.89447706
  21      -0.00000000
  22       0.00000000
  23       0.00000000
