 Molden2AIM, Version 3.1.0 (02/25/2015)           Time: Mon Dec  2 17:19:51 2024
GAUSSIAN             34 MOL ORBITALS     34 PRIMITIVES        1 NUCLEI
  Be   1    (CENTRE  1)   0.00000000  0.00000000  0.00000000  CHARGE =  4.0
CENTRE ASSIGNMENTS    1  1  1  1  1  1  1  1  1  1  1  1  1  1  1  1  1  1  1  1
CENTRE ASSIGNMENTS    1  1  1  1  1  1  1  1  1  1  1  1  1  1
TYPE ASSIGNMENTS      1  1  1  1  1  1  1  1  1  1  2  3  4  2  3  4  2  3  4  2
TYPE ASSIGNMENTS      3  4  5  6  7  8  9 10  5  6  7  8  9 10
EXPONENTS  0.1000000D-03 0.3000000D-03 0.9000000D-03 0.2700000D-02 0.8100000D-02
EXPONENTS  0.2430000D-01 0.7290000D-01 0.2187000D+00 0.6561000D+00 0.1968300D+01
EXPONENTS  0.1000000D-03 0.1000000D-03 0.1000000D-03 0.3000000D-03 0.3000000D-03
EXPONENTS  0.3000000D-03 0.9000000D-03 0.9000000D-03 0.9000000D-03 0.2700000D-02
EXPONENTS  0.2700000D-02 0.2700000D-02 0.1000000D-03 0.1000000D-03 0.1000000D-03
EXPONENTS  0.1000000D-03 0.1000000D-03 0.1000000D-03 0.3000000D-03 0.3000000D-03
EXPONENTS  0.3000000D-03 0.3000000D-03 0.3000000D-03 0.3000000D-03
MO    1     MO 0.0        OCC NO =    1.0000000  ORB. ENERGY =   -0.028970
 -0.19024105D-04 -0.36033797D-04  0.13424902D-03 -0.18461712D-03  0.55618825D-02
  0.24758082D-01  0.36383955D-01 -0.44635398D-01 -0.15741116D-01  0.14805271D-02
 -0.00000000D+00  0.00000000D+00 -0.00000000D+00  0.00000000D+00 -0.00000000D+00
 -0.00000000D+00 -0.00000000D+00  0.00000000D+00  0.00000000D+00  0.00000000D+00
 -0.00000000D+00 -0.00000000D+00  0.63864437D-09  0.63864437D-09  0.63864437D-09
 -0.00000000D+00  0.00000000D+00  0.00000000D+00  0.13871261D-07  0.13871261D-07
  0.13871261D-07  0.00000000D+00 -0.00000000D+00 -0.00000000D+00
MO    2     MO 0.0        OCC NO =    0.0000000  ORB. ENERGY =    0.000077
  0.14128481D-02 -0.11544278D-02 -0.68761162D-03  0.37337965D-03 -0.44362152D-04
  0.46185279D-03  0.34740359D-03 -0.44973738D-03 -0.19896638D-03  0.25037072D-04
 -0.00000000D+00  0.00000000D+00  0.00000000D+00  0.00000000D+00  0.00000000D+00
 -0.00000000D+00 -0.00000000D+00 -0.00000000D+00  0.00000000D+00  0.00000000D+00
  0.00000000D+00 -0.00000000D+00 -0.13104779D-06 -0.13104779D-06 -0.13104779D-06
  0.00000000D+00 -0.00000000D+00 -0.00000000D+00 -0.41614127D-06 -0.41614127D-06
 -0.41614127D-06 -0.00000000D+00 -0.00000000D+00 -0.00000000D+00
MO    3     MO 0.0        OCC NO =    0.0000000  ORB. ENERGY =    0.000225
 -0.00000000D+00  0.00000000D+00  0.00000000D+00 -0.00000000D+00  0.00000000D+00
 -0.00000000D+00  0.00000000D+00 -0.00000000D+00 -0.00000000D+00  0.00000000D+00
 -0.10893675D-06  0.16857076D-04  0.28001556D-06  0.11453384D-06 -0.17723215D-04
 -0.29440295D-06 -0.11249076D-06  0.17407048D-04  0.28915053D-06  0.73990914D-07
 -0.11449958D-04 -0.19019718D-06  0.00000000D+00 -0.00000000D+00  0.00000000D+00
  0.00000000D+00  0.00000000D+00 -0.00000000D+00 -0.00000000D+00  0.00000000D+00
  0.00000000D+00 -0.00000000D+00 -0.00000000D+00  0.00000000D+00
MO    4     MO 0.0        OCC NO =    0.0000000  ORB. ENERGY =    0.000225
  0.00000000D+00 -0.00000000D+00 -0.00000000D+00  0.00000000D+00 -0.00000000D+00
 -0.00000000D+00 -0.00000000D+00  0.00000000D+00 -0.00000000D+00  0.00000000D+00
  0.16859294D-04  0.10792143D-06  0.61984280D-07 -0.17725547D-04 -0.11346680D-06
 -0.65169249D-07  0.17409339D-04  0.11144198D-06  0.64006810D-07 -0.11451458D-04
 -0.73306625D-07 -0.42101304D-07 -0.00000000D+00  0.00000000D+00 -0.00000000D+00
 -0.00000000D+00 -0.00000000D+00  0.00000000D+00  0.00000000D+00 -0.00000000D+00
 -0.00000000D+00  0.00000000D+00  0.00000000D+00 -0.00000000D+00
MO    5     MO 0.0        OCC NO =    0.0000000  ORB. ENERGY =    0.000225
 -0.00000000D+00  0.00000000D+00 -0.00000000D+00 -0.00000000D+00  0.00000000D+00
  0.00000000D+00 -0.00000000D+00  0.00000000D+00 -0.00000000D+00  0.00000000D+00
 -0.60182133D-07 -0.28040855D-06  0.16857314D-04  0.63274355D-07  0.29481603D-06
 -0.17723465D-04 -0.62144777D-07 -0.28955715D-06  0.17407292D-04  0.40881866D-07
  0.19046037D-06 -0.11450116D-04 -0.00000000D+00  0.00000000D+00  0.00000000D+00
  0.00000000D+00 -0.00000000D+00 -0.00000000D+00  0.00000000D+00 -0.00000000D+00
  0.00000000D+00 -0.00000000D+00  0.00000000D+00  0.00000000D+00
MO    6     MO 0.0        OCC NO =    0.0000000  ORB. ENERGY =    0.000330
  0.47278305D-02 -0.28264374D-02 -0.18577972D-02  0.58295305D-03 -0.73893034D-03
 -0.43307494D-03 -0.11085800D-02  0.11918647D-02  0.28693866D-03  0.17173016D-05
 -0.00000000D+00  0.00000000D+00  0.00000000D+00  0.00000000D+00 -0.00000000D+00
  0.00000000D+00 -0.00000000D+00  0.00000000D+00 -0.00000000D+00  0.00000000D+00
 -0.00000000D+00 -0.00000000D+00 -0.24838843D-06 -0.24838843D-06 -0.24838843D-06
 -0.00000000D+00  0.00000000D+00  0.00000000D+00 -0.99011373D-06 -0.99011373D-06
 -0.99011373D-06  0.00000000D+00 -0.00000000D+00 -0.00000000D+00
MO    7     MO 0.0        OCC NO =    0.0000000  ORB. ENERGY =    0.000331
  0.00000000D+00 -0.00000000D+00 -0.00000000D+00  0.00000000D+00 -0.00000000D+00
 -0.00000000D+00 -0.00000000D+00  0.00000000D+00  0.00000000D+00  0.00000000D+00
 -0.00000000D+00  0.00000000D+00 -0.00000000D+00  0.00000000D+00  0.00000000D+00
 -0.00000000D+00 -0.00000000D+00 -0.00000000D+00  0.00000000D+00  0.00000000D+00
 -0.00000000D+00 -0.00000000D+00  0.80032776D-07  0.99568988D-07 -0.17960176D-06
 -0.10689271D-08 -0.16470621D-07 -0.21782007D-07 -0.88813747D-07 -0.11049342D-06
  0.19930716D-06  0.11861980D-08  0.18277723D-07  0.24171866D-07
MO    8     MO 0.0        OCC NO =    0.0000000  ORB. ENERGY =    0.000331
 -0.00000000D+00  0.00000000D+00  0.00000000D+00 -0.00000000D+00  0.00000000D+00
  0.00000000D+00  0.00000000D+00 -0.00000000D+00 -0.00000000D+00 -0.00000000D+00
  0.00000000D+00 -0.00000000D+00  0.00000000D+00 -0.00000000D+00  0.00000000D+00
  0.00000000D+00  0.00000000D+00 -0.00000000D+00 -0.00000000D+00 -0.00000000D+00
  0.00000000D+00  0.00000000D+00  0.16188626D-06 -0.14955275D-06 -0.12333510D-07
  0.37965222D-08  0.89234573D-08  0.18822389D-07 -0.17964796D-06  0.16596125D-06
  0.13686713D-07 -0.42130742D-08 -0.99025159D-08 -0.20887534D-07
MO    9     MO 0.0        OCC NO =    0.0000000  ORB. ENERGY =    0.000331
  0.00000000D+00 -0.00000000D+00 -0.00000000D+00  0.00000000D+00 -0.00000000D+00
 -0.00000000D+00 -0.00000000D+00  0.00000000D+00  0.00000000D+00 -0.00000000D+00
  0.00000000D+00 -0.00000000D+00 -0.00000000D+00 -0.00000000D+00  0.00000000D+00
  0.00000000D+00  0.00000000D+00  0.00000000D+00 -0.00000000D+00  0.00000000D+00
 -0.00000000D+00  0.00000000D+00 -0.17273054D-08  0.55183495D-08 -0.37910441D-08
  0.29106610D-06  0.11438350D-06 -0.50078677D-09  0.19168194D-08 -0.61238091D-08
  0.42069897D-08 -0.32300105D-06 -0.12693334D-06  0.55573604D-09
MO   10     MO 0.0        OCC NO =    0.0000000  ORB. ENERGY =    0.000331
 -0.00000000D+00  0.00000000D+00  0.00000000D+00 -0.00000000D+00  0.00000000D+00
  0.00000000D+00  0.00000000D+00 -0.00000000D+00 -0.00000000D+00  0.00000000D+00
 -0.00000000D+00 -0.00000000D+00 -0.00000000D+00  0.00000000D+00  0.00000000D+00
  0.00000000D+00 -0.00000000D+00 -0.00000000D+00 -0.00000000D+00 -0.00000000D+00
  0.00000000D+00  0.00000000D+00 -0.20630984D-09 -0.82104389D-08  0.84167487D-08
  0.11473230D-06 -0.29061529D-06 -0.12572324D-08  0.22894049D-09  0.91112686D-08
 -0.93402090D-08 -0.12732040D-06  0.32250078D-06  0.13951692D-08
MO   11     MO 0.0        OCC NO =    0.0000000  ORB. ENERGY =    0.000331
 -0.00000000D+00  0.00000000D+00  0.00000000D+00 -0.00000000D+00  0.00000000D+00
  0.00000000D+00  0.00000000D+00 -0.00000000D+00 -0.00000000D+00 -0.00000000D+00
  0.00000000D+00 -0.00000000D+00 -0.00000000D+00 -0.00000000D+00  0.00000000D+00
  0.00000000D+00 -0.00000000D+00 -0.00000000D+00 -0.00000000D+00  0.00000000D+00
  0.00000000D+00  0.00000000D+00  0.41884225D-08 -0.15971969D-07  0.11783546D-07
 -0.62673609D-09  0.26794818D-08 -0.31155794D-06 -0.46479646D-08  0.17724372D-07
 -0.13076407D-07  0.69549860D-09 -0.29734588D-08  0.34574120D-06
MO   12     MO 0.0        OCC NO =    0.0000000  ORB. ENERGY =    0.000854
 -0.72789534D-02  0.56982330D-02  0.34654907D-02 -0.17672578D-02  0.33299074D-03
 -0.18318629D-02 -0.12094687D-02  0.16141527D-02  0.76302398D-03 -0.10357105D-03
 -0.00000000D+00  0.00000000D+00 -0.00000000D+00  0.00000000D+00 -0.00000000D+00
  0.00000000D+00 -0.00000000D+00  0.00000000D+00 -0.00000000D+00  0.00000000D+00
  0.00000000D+00 -0.00000000D+00  0.28708719D-06  0.28708719D-06  0.28708719D-06
  0.00000000D+00  0.00000000D+00 -0.00000000D+00  0.22056340D-05  0.22056340D-05
  0.22056340D-05 -0.00000000D+00 -0.00000000D+00  0.00000000D+00
MO   13     MO 0.0        OCC NO =    0.0000000  ORB. ENERGY =    0.000919
 -0.00000000D+00  0.00000000D+00  0.00000000D+00 -0.00000000D+00  0.00000000D+00
  0.00000000D+00 -0.00000000D+00  0.00000000D+00  0.00000000D+00 -0.00000000D+00
  0.26880072D-06 -0.12585790D-04 -0.52276946D-08 -0.19776108D-05  0.92595710D-04
  0.38461214D-07  0.15807100D-05 -0.74012008D-04 -0.30741311D-07 -0.15006101D-05
  0.70261487D-04  0.29187547D-07  0.00000000D+00  0.00000000D+00  0.00000000D+00
 -0.00000000D+00 -0.00000000D+00  0.00000000D+00  0.00000000D+00 -0.00000000D+00
  0.00000000D+00  0.00000000D+00  0.00000000D+00 -0.00000000D+00
MO   14     MO 0.0        OCC NO =    0.0000000  ORB. ENERGY =    0.000919
  0.00000000D+00 -0.00000000D+00 -0.00000000D+00  0.00000000D+00  0.00000000D+00
 -0.00000000D+00  0.00000000D+00 -0.00000000D+00 -0.00000000D+00  0.00000000D+00
 -0.12585428D-04 -0.26883265D-06  0.95497544D-07  0.92593047D-04  0.19778454D-05
 -0.70259179D-06 -0.74009879D-04 -0.15808967D-05  0.56158276D-06  0.70259470D-04
  0.15007856D-05 -0.53312234D-06 -0.00000000D+00 -0.00000000D+00 -0.00000000D+00
  0.00000000D+00 -0.00000000D+00 -0.00000000D+00 -0.00000000D+00 -0.00000000D+00
 -0.00000000D+00 -0.00000000D+00 -0.00000000D+00  0.00000000D+00
MO   15     MO 0.0        OCC NO =    0.0000000  ORB. ENERGY =    0.000919
  0.00000000D+00 -0.00000000D+00 -0.00000000D+00 -0.00000000D+00  0.00000000D+00
  0.00000000D+00  0.00000000D+00 -0.00000000D+00  0.00000000D+00 -0.00000000D+00
 -0.95587488D-07  0.31872189D-08 -0.12588298D-04  0.70325250D-06 -0.23449516D-07
  0.92614160D-04 -0.56211160D-06  0.18742534D-07 -0.74026755D-04  0.53363117D-06
 -0.17791507D-07  0.70275489D-04 -0.00000000D+00 -0.00000000D+00 -0.00000000D+00
 -0.00000000D+00 -0.00000000D+00  0.00000000D+00 -0.00000000D+00 -0.00000000D+00
 -0.00000000D+00  0.00000000D+00  0.00000000D+00  0.00000000D+00
MO   16     MO 0.0        OCC NO =    0.0000000  ORB. ENERGY =    0.001263
 -0.00000000D+00 -0.00000000D+00  0.00000000D+00 -0.00000000D+00  0.00000000D+00
 -0.00000000D+00  0.00000000D+00 -0.00000000D+00 -0.00000000D+00 -0.00000000D+00
 -0.00000000D+00  0.00000000D+00 -0.00000000D+00  0.00000000D+00 -0.00000000D+00
  0.00000000D+00 -0.00000000D+00  0.00000000D+00 -0.00000000D+00  0.00000000D+00
  0.00000000D+00  0.00000000D+00  0.40094449D-07  0.59443265D-07 -0.99537713D-07
  0.29488902D-10 -0.29956493D-08 -0.72878068D-08 -0.55926951D-06 -0.82916229D-06
  0.13884318D-05 -0.41135306D-09  0.41785712D-07  0.10165618D-06
MO   17     MO 0.0        OCC NO =    0.0000000  ORB. ENERGY =    0.001263
  0.00000000D+00 -0.00000000D+00 -0.00000000D+00  0.00000000D+00 -0.00000000D+00
  0.00000000D+00 -0.00000000D+00 -0.00000000D+00 -0.00000000D+00 -0.00000000D+00
 -0.00000000D+00  0.00000000D+00 -0.00000000D+00  0.00000000D+00 -0.00000000D+00
  0.00000000D+00 -0.00000000D+00  0.00000000D+00 -0.00000000D+00  0.00000000D+00
 -0.00000000D+00  0.00000000D+00 -0.91592036D-07  0.80040413D-07  0.11551623D-07
  0.33010921D-08 -0.10816979D-07 -0.13183737D-07  0.12775991D-05 -0.11164678D-05
 -0.16113130D-06 -0.46046277D-07  0.15088389D-06  0.18389732D-06
MO   18     MO 0.0        OCC NO =    0.0000000  ORB. ENERGY =    0.001263
 -0.00000000D+00  0.00000000D+00 -0.00000000D+00  0.00000000D+00 -0.00000000D+00
  0.00000000D+00 -0.00000000D+00  0.00000000D+00 -0.00000000D+00  0.00000000D+00
 -0.00000000D+00  0.00000000D+00  0.00000000D+00  0.00000000D+00 -0.00000000D+00
 -0.00000000D+00  0.00000000D+00 -0.00000000D+00  0.00000000D+00 -0.00000000D+00
  0.00000000D+00 -0.00000000D+00 -0.12391412D-08  0.93841629D-09  0.30072491D-09
 -0.17283196D-06 -0.16844352D-07 -0.31617610D-09  0.17284523D-07 -0.13089779D-07
 -0.41947435D-08  0.24107987D-05  0.23495853D-06  0.44102702D-08
MO   19     MO 0.0        OCC NO =    0.0000000  ORB. ENERGY =    0.001263
  0.00000000D+00  0.00000000D+00 -0.00000000D+00  0.00000000D+00 -0.00000000D+00
  0.00000000D+00 -0.00000000D+00  0.00000000D+00 -0.00000000D+00  0.00000000D+00
 -0.00000000D+00  0.00000000D+00  0.00000000D+00  0.00000000D+00 -0.00000000D+00
 -0.00000000D+00 -0.00000000D+00  0.00000000D+00  0.00000000D+00 -0.00000000D+00
 -0.00000000D+00 -0.00000000D+00  0.52408124D-08 -0.62608993D-08  0.10200886D-08
  0.16671604D-07 -0.17246591D-06 -0.13745266D-08 -0.73103050D-07  0.87332050D-07
 -0.14229000D-07 -0.23254888D-06  0.24056927D-05  0.19172991D-07
MO   20     MO 0.0        OCC NO =    0.0000000  ORB. ENERGY =    0.001263
  0.00000000D+00  0.00000000D+00 -0.00000000D+00  0.00000000D+00 -0.00000000D+00
  0.00000000D+00 -0.00000000D+00  0.00000000D+00 -0.00000000D+00  0.00000000D+00
  0.00000000D+00 -0.00000000D+00  0.00000000D+00 -0.00000000D+00  0.00000000D+00
  0.00000000D+00  0.00000000D+00 -0.00000000D+00 -0.00000000D+00 -0.00000000D+00
  0.00000000D+00  0.00000000D+00  0.52513594D-08 -0.85554260D-08  0.33040665D-08
 -0.69397557D-10  0.23515147D-08 -0.17300526D-06 -0.73250173D-07  0.11933794D-06
 -0.46087768D-07  0.96800538D-09 -0.32800825D-07  0.24132160D-05
MO   21     MO 0.0        OCC NO =    0.0000000  ORB. ENERGY =    0.001881
  0.72881472D-02  0.13633249D-02 -0.89267995D-02  0.25205442D-02 -0.27203852D-02
 -0.10130947D-02 -0.34723381D-02  0.36416565D-02  0.77729116D-03  0.33753858D-04
  0.00000000D+00 -0.00000000D+00  0.00000000D+00 -0.00000000D+00  0.00000000D+00
 -0.00000000D+00  0.00000000D+00 -0.00000000D+00  0.00000000D+00  0.00000000D+00
  0.00000000D+00 -0.00000000D+00 -0.25065386D-06 -0.25065386D-06 -0.25065386D-06
  0.00000000D+00  0.00000000D+00  0.00000000D+00 -0.38482615D-05 -0.38482615D-05
 -0.38482615D-05 -0.00000000D+00 -0.00000000D+00 -0.00000000D+00
MO   22     MO 0.0        OCC NO =    0.0000000  ORB. ENERGY =    0.003006
 -0.00000000D+00 -0.00000000D+00  0.00000000D+00 -0.00000000D+00  0.00000000D+00
 -0.00000000D+00  0.00000000D+00  0.00000000D+00 -0.00000000D+00  0.00000000D+00
  0.43830816D-07 -0.66188983D-05  0.20721256D-06 -0.49634556D-06  0.74953186D-04
 -0.23464993D-05  0.24629756D-05 -0.37193419D-03  0.11643844D-04 -0.96701404D-06
  0.14602928D-03 -0.45716190D-05  0.00000000D+00  0.00000000D+00  0.00000000D+00
 -0.00000000D+00  0.00000000D+00  0.00000000D+00  0.00000000D+00  0.00000000D+00
  0.00000000D+00 -0.00000000D+00 -0.00000000D+00 -0.00000000D+00
MO   23     MO 0.0        OCC NO =    0.0000000  ORB. ENERGY =    0.003006
  0.00000000D+00 -0.00000000D+00 -0.00000000D+00  0.00000000D+00 -0.00000000D+00
 -0.00000000D+00 -0.00000000D+00  0.00000000D+00 -0.00000000D+00  0.00000000D+00
  0.20951118D-07 -0.20707743D-06 -0.66190144D-05 -0.23725337D-06  0.23449691D-05
  0.74954502D-04  0.11773022D-05 -0.11636252D-04 -0.37194072D-03 -0.46223705D-06
  0.45686362D-05  0.14603184D-03 -0.00000000D+00 -0.00000000D+00 -0.00000000D+00
  0.00000000D+00 -0.00000000D+00  0.00000000D+00 -0.00000000D+00 -0.00000000D+00
 -0.00000000D+00  0.00000000D+00  0.00000000D+00 -0.00000000D+00
MO   24     MO 0.0        OCC NO =    0.0000000  ORB. ENERGY =    0.003006
 -0.00000000D+00 -0.00000000D+00  0.00000000D+00 -0.00000000D+00  0.00000000D+00
 -0.00000000D+00 -0.00000000D+00 -0.00000000D+00  0.00000000D+00 -0.00000000D+00
  0.66221079D-05  0.44464697D-07  0.19569894D-07 -0.74989532D-04 -0.50352443D-06
 -0.22161135D-06  0.37211454D-03  0.24985987D-05  0.10996835D-05 -0.14610009D-03
 -0.98100687D-06 -0.43175988D-06  0.00000000D+00  0.00000000D+00  0.00000000D+00
 -0.00000000D+00 -0.00000000D+00 -0.00000000D+00  0.00000000D+00  0.00000000D+00
  0.00000000D+00 -0.00000000D+00  0.00000000D+00 -0.00000000D+00
MO   25     MO 0.0        OCC NO =    0.0000000  ORB. ENERGY =    0.004233
  0.53357941D-02  0.85794065D-02 -0.24701154D-01  0.11392997D-01 -0.29920576D-02
  0.73449567D-02  0.31593030D-02 -0.47539130D-02 -0.27680045D-02  0.44998038D-03
  0.00000000D+00 -0.00000000D+00 -0.00000000D+00 -0.00000000D+00  0.00000000D+00
 -0.00000000D+00  0.00000000D+00 -0.00000000D+00 -0.00000000D+00 -0.00000000D+00
  0.00000000D+00  0.00000000D+00 -0.17533701D-06 -0.17533701D-06 -0.17533701D-06
  0.00000000D+00  0.00000000D+00  0.00000000D+00 -0.38289671D-05 -0.38289671D-05
 -0.38289671D-05 -0.00000000D+00 -0.00000000D+00 -0.00000000D+00
MO   26     MO 0.0        OCC NO =    0.0000000  ORB. ENERGY =    0.008185
  0.00000000D+00  0.00000000D+00 -0.00000000D+00  0.00000000D+00 -0.00000000D+00
  0.00000000D+00 -0.00000000D+00 -0.00000000D+00  0.00000000D+00  0.00000000D+00
 -0.57809109D-07  0.34187496D-05 -0.37462508D-07  0.71264367D-06 -0.42144786D-04
  0.46182046D-06 -0.55998981D-05  0.33117047D-03 -0.36289479D-05  0.23063119D-04
 -0.13639222D-02  0.14945787D-04 -0.00000000D+00 -0.00000000D+00 -0.00000000D+00
  0.00000000D+00  0.00000000D+00 -0.00000000D+00 -0.00000000D+00 -0.00000000D+00
 -0.00000000D+00  0.00000000D+00 -0.00000000D+00  0.00000000D+00
MO   27     MO 0.0        OCC NO =    0.0000000  ORB. ENERGY =    0.008185
  0.00000000D+00 -0.00000000D+00 -0.00000000D+00  0.00000000D+00 -0.00000000D+00
  0.00000000D+00 -0.00000000D+00  0.00000000D+00 -0.00000000D+00 -0.00000000D+00
  0.17421159D-06 -0.34473706D-07 -0.34148289D-05 -0.21476008D-05  0.42497612D-06
  0.42096453D-04  0.16875680D-04 -0.33394285D-05 -0.33079067D-03 -0.69502313D-04
  0.13753405D-04  0.13623580D-02 -0.00000000D+00 -0.00000000D+00 -0.00000000D+00
 -0.00000000D+00  0.00000000D+00  0.00000000D+00 -0.00000000D+00 -0.00000000D+00
 -0.00000000D+00  0.00000000D+00  0.00000000D+00 -0.00000000D+00
MO   28     MO 0.0        OCC NO =    0.0000000  ORB. ENERGY =    0.008185
  0.00000000D+00  0.00000000D+00 -0.00000000D+00  0.00000000D+00 -0.00000000D+00
 -0.00000000D+00 -0.00000000D+00 -0.00000000D+00  0.00000000D+00 -0.00000000D+00
 -0.34145136D-05 -0.59639621D-07 -0.17359339D-06  0.42092566D-04  0.73521018D-06
  0.21399801D-05 -0.33076013D-03 -0.57772267D-05 -0.16815799D-04  0.13622322D-02
  0.23793448D-04  0.69255697D-04 -0.00000000D+00  0.00000000D+00 -0.00000000D+00
 -0.00000000D+00 -0.00000000D+00  0.00000000D+00  0.00000000D+00 -0.00000000D+00
 -0.00000000D+00  0.00000000D+00  0.00000000D+00 -0.00000000D+00
MO   29     MO 0.0        OCC NO =    0.0000000  ORB. ENERGY =    0.011595
  0.31113774D-02  0.68426036D-02 -0.24004925D-01  0.36565505D-01 -0.28411245D-01
  0.27126460D-02 -0.19577925D-01  0.18307923D-01  0.15913881D-02  0.83124501D-03
  0.00000000D+00 -0.00000000D+00  0.00000000D+00 -0.00000000D+00  0.00000000D+00
 -0.00000000D+00  0.00000000D+00 -0.00000000D+00  0.00000000D+00 -0.00000000D+00
  0.00000000D+00 -0.00000000D+00 -0.10221974D-06 -0.10221974D-06 -0.10221974D-06
  0.00000000D+00  0.00000000D+00  0.00000000D+00 -0.24087049D-05 -0.24087049D-05
 -0.24087049D-05 -0.00000000D+00 -0.00000000D+00 -0.00000000D+00
MO   30     MO 0.0        OCC NO =    0.0000000  ORB. ENERGY =    0.039738
 -0.16180472D-02 -0.35468280D-02  0.13405678D-01 -0.31184600D-01  0.77481804D-01
 -0.94862098D-01  0.89132985D-02  0.89677131D-02  0.22255201D-01 -0.54795658D-02
  0.00000000D+00  0.00000000D+00 -0.00000000D+00  0.00000000D+00 -0.00000000D+00
  0.00000000D+00  0.00000000D+00  0.00000000D+00 -0.00000000D+00 -0.00000000D+00
 -0.00000000D+00  0.00000000D+00  0.53554774D-07  0.53554774D-07  0.53554774D-07
 -0.00000000D+00 -0.00000000D+00 -0.00000000D+00  0.12413729D-05  0.12413729D-05
  0.12413729D-05  0.00000000D+00  0.00000000D+00  0.00000000D+00
MO   31     MO 0.0        OCC NO =    0.0000000  ORB. ENERGY =    0.159140
 -0.77437467D-03 -0.16428518D-02  0.62528296D-02 -0.15386364D-01  0.53526595D-01
 -0.17092570D+00  0.32328747D+00 -0.20097448D+00  0.39311054D-01 -0.24478855D-01
 -0.00000000D+00  0.00000000D+00  0.00000000D+00  0.00000000D+00 -0.00000000D+00
 -0.00000000D+00 -0.00000000D+00  0.00000000D+00  0.00000000D+00  0.00000000D+00
 -0.00000000D+00 -0.00000000D+00  0.25732273D-07  0.25732273D-07  0.25732273D-07
 -0.00000000D+00 -0.00000000D+00 -0.00000000D+00  0.58669306D-06  0.58669306D-06
  0.58669306D-06  0.00000000D+00  0.00000000D+00  0.00000000D+00
MO   32     MO 0.0        OCC NO =    0.0000000  ORB. ENERGY =    0.765055
 -0.32035343D-03 -0.66873856D-03  0.25390264D-02 -0.61439803D-02  0.21742297D-01
 -0.85209610D-01  0.31000017D+00 -0.76350325D+00  0.61086663D+00 -0.15672465D+00
 -0.00000000D+00  0.00000000D+00  0.00000000D+00  0.00000000D+00 -0.00000000D+00
 -0.00000000D+00 -0.00000000D+00  0.00000000D+00  0.00000000D+00 -0.00000000D+00
 -0.00000000D+00 -0.00000000D+00  0.10660859D-07  0.10660859D-07  0.10660859D-07
 -0.00000000D+00 -0.00000000D+00 -0.00000000D+00  0.24135540D-06  0.24135540D-06
  0.24135540D-06  0.00000000D+00  0.00000000D+00  0.00000000D+00
MO   33     MO 0.0        OCC NO =    0.0000000  ORB. ENERGY =    2.730680
  0.15085896D-03  0.31367577D-03 -0.11898300D-02  0.28588714D-02 -0.10012188D-01
  0.39415692D-01 -0.15949715D+00  0.59501405D+00 -0.15195276D+01  0.94781265D+00
  0.00000000D+00 -0.00000000D+00 -0.00000000D+00 -0.00000000D+00  0.00000000D+00
  0.00000000D+00  0.00000000D+00 -0.00000000D+00 -0.00000000D+00  0.00000000D+00
  0.00000000D+00  0.00000000D+00 -0.50220001D-08 -0.50220001D-08 -0.50220001D-08
 -0.00000000D+00  0.00000000D+00 -0.00000000D+00 -0.11350634D-06 -0.11350634D-06
 -0.11350634D-06 -0.00000000D+00 -0.00000000D+00 -0.00000000D+00
MO   34     MO 0.0        OCC NO =    0.0000000  ORB. ENERGY =   10.360500
 -0.77747073D-04 -0.16142774D-03  0.61207606D-03 -0.14660903D-02  0.51003028D-02
 -0.19853518D-01  0.79891263D-01 -0.31762512D+00  0.11219776D+01 -0.23479304D+01
  0.00000000D+00  0.00000000D+00  0.00000000D+00  0.00000000D+00 -0.00000000D+00
 -0.00000000D+00 -0.00000000D+00  0.00000000D+00  0.00000000D+00  0.00000000D+00
 -0.00000000D+00 -0.00000000D+00  0.25884407D-08  0.25884407D-08  0.25884407D-08
  0.00000000D+00 -0.00000000D+00 -0.00000000D+00  0.58469430D-07  0.58469430D-07
  0.58469430D-07 -0.00000000D+00  0.00000000D+00 -0.00000000D+00
END DATA
 THE  HF ENERGY =    -14.730497608084 THE VIRIAL(-V/T)=   2.01604832


 $MOSPIN $END
 3 3 3 3 3 3 3 3 3 3 3 3 3 3 3 3 3 3 3 3 3 3 3 3 3 3 3 3 3 3 3 3 3 3


