[Molden Format]
[Title]
 Molden2AIM, Version 3.1.0 (02/25/2015)           Time: Mon Dec  2 17:19:51 2024

[Atoms] AU
E+       1       4     0.00000000     0.00000000     0.00000000
[GTO]
    1 0
 S   1 1.0
    0.1000000000D-03      0.1000000000D+01
 S   1 1.0
    0.3000000000D-03      0.1000000000D+01
 S   1 1.0
    0.9000000000D-03      0.1000000000D+01
 S   1 1.0
    0.2700000000D-02      0.1000000000D+01
 S   1 1.0
    0.8100000000D-02      0.1000000000D+01
 S   1 1.0
    0.2430000000D-01      0.1000000000D+01
 S   1 1.0
    0.7290000000D-01      0.1000000000D+01
 S   1 1.0
    0.2187000000D+00      0.1000000000D+01
 S   1 1.0
    0.6561000000D+00      0.1000000000D+01
 S   1 1.0
    0.1968300000D+01      0.1000000000D+01
 P   1 1.0
    0.1000000000D-03      0.1000000000D+01
 P   1 1.0
    0.3000000000D-03      0.1000000000D+01
 P   1 1.0
    0.9000000000D-03      0.1000000000D+01
 P   1 1.0
    0.2700000000D-02      0.1000000000D+01
 D   1 1.0
    0.1000000000D-03      0.1000000000D+01
 D   1 1.0
    0.3000000000D-03      0.1000000000D+01


[MO]
 Ene=         -0.02897030
 Spin= Alpha
 Occup=        1.00000000
    1       -0.0266928000
    2       -0.0221798700
    3        0.0362509300
    4       -0.0218695100
    5        0.2890333500
    6        0.5644197500
    7        0.3638766300
    8       -0.1958315800
    9       -0.0302968800
   10        0.0012500800
   11       -0.0000000000
   12        0.0000000000
   13       -0.0000000000
   14        0.0000000000
   15       -0.0000000000
   16       -0.0000000000
   17       -0.0000000000
   18        0.0000000000
   19        0.0000000000
   20        0.0000000000
   21       -0.0000000000
   22       -0.0000000000
   23        0.0038801600
   24        0.0038801600
   25        0.0038801600
   26       -0.0000000000
   27        0.0000000000
   28        0.0000000000
   29        0.0123237900
   30        0.0123237900
   31        0.0123237900
   32        0.0000000000
   33       -0.0000000000
   34       -0.0000000000
 Ene=          0.00007719
 Spin= Alpha
 Occup=        0.00000000
    1        1.9823730700
    2       -0.7105845300
    3       -0.1856740600
    4        0.0442300800
    5       -0.0023053600
    6        0.0105290400
    7        0.0034743900
    8       -0.0019731600
    9       -0.0003829500
   10        0.0000211400
   11       -0.0000000000
   12        0.0000000000
   13        0.0000000000
   14        0.0000000000
   15        0.0000000000
   16       -0.0000000000
   17       -0.0000000000
   18       -0.0000000000
   19        0.0000000000
   20        0.0000000000
   21        0.0000000000
   22       -0.0000000000
   23       -0.7961964800
   24       -0.7961964800
   25       -0.7961964800
   26        0.0000000000
   27       -0.0000000000
   28       -0.0000000000
   29       -0.3697167600
   30       -0.3697167600
   31       -0.3697167600
   32       -0.0000000000
   33       -0.0000000000
   34       -0.0000000000
 Ene=          0.00022466
 Spin= Alpha
 Occup=        0.00000000
    1       -0.0000000000
    2        0.0000000000
    3        0.0000000000
    4       -0.0000000000
    5        0.0000000000
    6       -0.0000000000
    7        0.0000000000
    8       -0.0000000000
    9       -0.0000000000
   10        0.0000000000
   11       -0.0076424800
   12        1.1826116700
   13        0.0196445500
   14        0.0020351300
   15       -0.3149204400
   16       -0.0052311900
   17       -0.0005062600
   18        0.0783397000
   19        0.0013013100
   20        0.0000843400
   21       -0.0130514600
   22       -0.0002168000
   23        0.0000000000
   24       -0.0000000000
   25        0.0000000000
   26        0.0000000000
   27        0.0000000000
   28       -0.0000000000
   29       -0.0000000000
   30        0.0000000000
   31        0.0000000000
   32       -0.0000000000
   33       -0.0000000000
   34        0.0000000000
 Ene=          0.00022466
 Spin= Alpha
 Occup=        0.00000000
    1        0.0000000000
    2       -0.0000000000
    3       -0.0000000000
    4        0.0000000000
    5       -0.0000000000
    6       -0.0000000000
    7       -0.0000000000
    8        0.0000000000
    9       -0.0000000000
   10        0.0000000000
   11        1.1827672800
   12        0.0075712500
   13        0.0043485200
   14       -0.3149618800
   15       -0.0020161700
   16       -0.0011579800
   17        0.0783500100
   18        0.0005015400
   19        0.0002880600
   20       -0.0130531700
   21       -0.0000835600
   22       -0.0000479900
   23       -0.0000000000
   24        0.0000000000
   25       -0.0000000000
   26       -0.0000000000
   27       -0.0000000000
   28        0.0000000000
   29        0.0000000000
   30       -0.0000000000
   31       -0.0000000000
   32        0.0000000000
   33        0.0000000000
   34       -0.0000000000
 Ene=          0.00022466
 Spin= Alpha
 Occup=        0.00000000
    1       -0.0000000000
    2        0.0000000000
    3       -0.0000000000
    4       -0.0000000000
    5        0.0000000000
    6        0.0000000000
    7       -0.0000000000
    8        0.0000000000
    9       -0.0000000000
   10        0.0000000000
   11       -0.0042220900
   12       -0.0196721200
   13        1.1826283700
   14        0.0011243100
   15        0.0052385300
   16       -0.3149248800
   17       -0.0002796800
   18       -0.0013031400
   19        0.0783408000
   20        0.0000466000
   21        0.0002171000
   22       -0.0130516400
   23       -0.0000000000
   24        0.0000000000
   25        0.0000000000
   26        0.0000000000
   27       -0.0000000000
   28       -0.0000000000
   29        0.0000000000
   30       -0.0000000000
   31        0.0000000000
   32       -0.0000000000
   33        0.0000000000
   34        0.0000000000
 Ene=          0.00032966
 Spin= Alpha
 Occup=        0.00000000
    1        6.6336385400
    2       -1.7397559700
    3       -0.5016563600
    4        0.0690558800
    5       -0.0383998600
    6       -0.0098729800
    7       -0.0110869300
    8        0.0052291400
    9        0.0005522700
   10        0.0000014500
   11       -0.0000000000
   12        0.0000000000
   13        0.0000000000
   14        0.0000000000
   15       -0.0000000000
   16        0.0000000000
   17       -0.0000000000
   18        0.0000000000
   19       -0.0000000000
   20        0.0000000000
   21       -0.0000000000
   22       -0.0000000000
   23       -1.5091135000
   24       -1.5091135000
   25       -1.5091135000
   26       -0.0000000000
   27        0.0000000000
   28        0.0000000000
   29       -0.8796571400
   30       -0.8796571400
   31       -0.8796571400
   32        0.0000000000
   33       -0.0000000000
   34       -0.0000000000
 Ene=          0.00033071
 Spin= Alpha
 Occup=        0.00000000
    1        0.0000000000
    2       -0.0000000000
    3       -0.0000000000
    4        0.0000000000
    5       -0.0000000000
    6       -0.0000000000
    7       -0.0000000000
    8        0.0000000000
    9        0.0000000000
   10        0.0000000000
   11       -0.0000000000
   12        0.0000000000
   13       -0.0000000000
   14        0.0000000000
   15        0.0000000000
   16       -0.0000000000
   17       -0.0000000000
   18       -0.0000000000
   19        0.0000000000
   20        0.0000000000
   21       -0.0000000000
   22       -0.0000000000
   23        0.4862486700
   24        0.6049432500
   25       -1.0911919100
   26       -0.0037495400
   27       -0.0577749900
   28       -0.0764060600
   29       -0.0789057300
   30       -0.0981668300
   31        0.1770725500
   32        0.0006084500
   33        0.0093754000
   34        0.0123987500
 Ene=          0.00033071
 Spin= Alpha
 Occup=        0.00000000
    1       -0.0000000000
    2        0.0000000000
    3        0.0000000000
    4       -0.0000000000
    5        0.0000000000
    6        0.0000000000
    7        0.0000000000
    8       -0.0000000000
    9       -0.0000000000
   10       -0.0000000000
   11        0.0000000000
   12       -0.0000000000
   13        0.0000000000
   14       -0.0000000000
   15        0.0000000000
   16        0.0000000000
   17        0.0000000000
   18       -0.0000000000
   19       -0.0000000000
   20       -0.0000000000
   21        0.0000000000
   22        0.0000000000
   23        0.9835592500
   24       -0.9086255300
   25       -0.0749337100
   26        0.0133172900
   27        0.0313013500
   28        0.0660244300
   29       -0.1596065200
   30        0.1474467000
   31        0.0121598300
   32       -0.0021610600
   33       -0.0050794100
   34       -0.0107140800
 Ene=          0.00033071
 Spin= Alpha
 Occup=        0.00000000
    1        0.0000000000
    2       -0.0000000000
    3       -0.0000000000
    4        0.0000000000
    5       -0.0000000000
    6       -0.0000000000
    7       -0.0000000000
    8        0.0000000000
    9        0.0000000000
   10       -0.0000000000
   11        0.0000000000
   12       -0.0000000000
   13       -0.0000000000
   14       -0.0000000000
   15        0.0000000000
   16        0.0000000000
   17        0.0000000000
   18        0.0000000000
   19       -0.0000000000
   20        0.0000000000
   21       -0.0000000000
   22        0.0000000000
   23       -0.0104944500
   24        0.0335273900
   25       -0.0230329400
   26        1.0209901200
   27        0.4012299000
   28       -0.0017566400
   29        0.0017029800
   30       -0.0054406400
   31        0.0037376600
   32       -0.1656806000
   33       -0.0651093600
   34        0.0002850600
 Ene=          0.00033071
 Spin= Alpha
 Occup=        0.00000000
    1       -0.0000000000
    2        0.0000000000
    3        0.0000000000
    4       -0.0000000000
    5        0.0000000000
    6        0.0000000000
    7        0.0000000000
    8       -0.0000000000
    9       -0.0000000000
   10        0.0000000000
   11       -0.0000000000
   12       -0.0000000000
   13       -0.0000000000
   14        0.0000000000
   15        0.0000000000
   16        0.0000000000
   17       -0.0000000000
   18       -0.0000000000
   19       -0.0000000000
   20       -0.0000000000
   21        0.0000000000
   22        0.0000000000
   23       -0.0012534600
   24       -0.0498835000
   25        0.0511369600
   26        0.4024534300
   27       -1.0194088100
   28       -0.0044100700
   29        0.0002034000
   30        0.0080948200
   31       -0.0082982200
   32       -0.0653079000
   33        0.1654239900
   34        0.0007156400
 Ene=          0.00033071
 Spin= Alpha
 Occup=        0.00000000
    1       -0.0000000000
    2        0.0000000000
    3        0.0000000000
    4       -0.0000000000
    5        0.0000000000
    6        0.0000000000
    7        0.0000000000
    8       -0.0000000000
    9       -0.0000000000
   10       -0.0000000000
   11        0.0000000000
   12       -0.0000000000
   13       -0.0000000000
   14       -0.0000000000
   15        0.0000000000
   16        0.0000000000
   17       -0.0000000000
   18       -0.0000000000
   19       -0.0000000000
   20        0.0000000000
   21        0.0000000000
   22        0.0000000000
   23        0.0254472600
   24       -0.0970396000
   25        0.0715923400
   26       -0.0021984400
   27        0.0093989800
   28       -1.0928706100
   29       -0.0041294400
   30        0.0157470500
   31       -0.0116176100
   32        0.0003567500
   33       -0.0015252100
   34        0.1773449600
 Ene=          0.00085369
 Spin= Alpha
 Occup=        0.00000000
    1      -10.2131297600
    2        3.5074312600
    3        0.9357778600
    4       -0.2093471200
    5        0.0173044700
    6       -0.0417617000
    7       -0.0120959200
    8        0.0070818700
    9        0.0014685900
   10       -0.0000874500
   11       -0.0000000000
   12        0.0000000000
   13       -0.0000000000
   14        0.0000000000
   15       -0.0000000000
   16        0.0000000000
   17       -0.0000000000
   18        0.0000000000
   19       -0.0000000000
   20        0.0000000000
   21        0.0000000000
   22       -0.0000000000
   23        1.7442324500
   24        1.7442324500
   25        1.7442324500
   26        0.0000000000
   27        0.0000000000
   28       -0.0000000000
   29        1.9595746100
   30        1.9595746100
   31        1.9595746100
   32       -0.0000000000
   33       -0.0000000000
   34        0.0000000000
 Ene=          0.00091857
 Spin= Alpha
 Occup=        0.00000000
    1       -0.0000000000
    2        0.0000000000
    3        0.0000000000
    4       -0.0000000000
    5        0.0000000000
    6        0.0000000000
    7       -0.0000000000
    8        0.0000000000
    9        0.0000000000
   10       -0.0000000000
   11        0.0188577700
   12       -0.8829586800
   13       -0.0003667500
   14       -0.0351397900
   15        1.6453155700
   16        0.0006834100
   17        0.0071139200
   18       -0.3330879800
   19       -0.0001383500
   20       -0.0017105000
   21        0.0800889400
   22        0.0000332700
   23        0.0000000000
   24        0.0000000000
   25        0.0000000000
   26       -0.0000000000
   27       -0.0000000000
   28        0.0000000000
   29        0.0000000000
   30       -0.0000000000
   31        0.0000000000
   32        0.0000000000
   33        0.0000000000
   34       -0.0000000000
 Ene=          0.00091857
 Spin= Alpha
 Occup=        0.00000000
    1        0.0000000000
    2       -0.0000000000
    3       -0.0000000000
    4        0.0000000000
    5        0.0000000000
    6       -0.0000000000
    7        0.0000000000
    8       -0.0000000000
    9       -0.0000000000
   10        0.0000000000
   11       -0.8829332900
   12       -0.0188600100
   13        0.0066996500
   14        1.6452682600
   15        0.0351439600
   16       -0.0124842200
   17       -0.3330784000
   18       -0.0071147600
   19        0.0025273800
   20        0.0800866400
   21        0.0017107000
   22       -0.0006076900
   23       -0.0000000000
   24       -0.0000000000
   25       -0.0000000000
   26        0.0000000000
   27       -0.0000000000
   28       -0.0000000000
   29       -0.0000000000
   30       -0.0000000000
   31       -0.0000000000
   32       -0.0000000000
   33       -0.0000000000
   34        0.0000000000
 Ene=          0.00091857
 Spin= Alpha
 Occup=        0.00000000
    1        0.0000000000
    2       -0.0000000000
    3       -0.0000000000
    4       -0.0000000000
    5        0.0000000000
    6        0.0000000000
    7        0.0000000000
    8       -0.0000000000
    9        0.0000000000
   10       -0.0000000000
   11       -0.0067059600
   12        0.0002236000
   13       -0.8831346300
   14        0.0124959600
   15       -0.0004166700
   16        1.6456434200
   17       -0.0025297600
   18        0.0000843500
   19       -0.3331543500
   20        0.0006082700
   21       -0.0000202800
   22        0.0801049000
   23       -0.0000000000
   24       -0.0000000000
   25       -0.0000000000
   26       -0.0000000000
   27       -0.0000000000
   28        0.0000000000
   29       -0.0000000000
   30       -0.0000000000
   31       -0.0000000000
   32        0.0000000000
   33        0.0000000000
   34        0.0000000000
 Ene=          0.00126337
 Spin= Alpha
 Occup=        0.00000000
    1       -0.0000000000
    2       -0.0000000000
    3        0.0000000000
    4       -0.0000000000
    5        0.0000000000
    6       -0.0000000000
    7        0.0000000000
    8       -0.0000000000
    9       -0.0000000000
   10       -0.0000000000
   11       -0.0000000000
   12        0.0000000000
   13       -0.0000000000
   14        0.0000000000
   15       -0.0000000000
   16        0.0000000000
   17       -0.0000000000
   18        0.0000000000
   19       -0.0000000000
   20        0.0000000000
   21        0.0000000000
   22        0.0000000000
   23        0.2435986000
   24        0.3611546400
   25       -0.6047532400
   26        0.0001034400
   27       -0.0105080200
   28       -0.0255638800
   29       -0.4968776800
   30       -0.7366613600
   31        1.2335390400
   32       -0.0002110000
   33        0.0214336200
   34        0.0521436600
 Ene=          0.00126337
 Spin= Alpha
 Occup=        0.00000000
    1        0.0000000000
    2       -0.0000000000
    3       -0.0000000000
    4        0.0000000000
    5       -0.0000000000
    6        0.0000000000
    7       -0.0000000000
    8       -0.0000000000
    9       -0.0000000000
   10       -0.0000000000
   11       -0.0000000000
   12        0.0000000000
   13       -0.0000000000
   14        0.0000000000
   15       -0.0000000000
   16        0.0000000000
   17       -0.0000000000
   18        0.0000000000
   19       -0.0000000000
   20        0.0000000000
   21       -0.0000000000
   22        0.0000000000
   23       -0.5564783300
   24        0.4862950700
   25        0.0701832600
   26        0.0115794400
   27       -0.0379433700
   28       -0.0462453900
   29        1.1350708000
   30       -0.9919152300
   31       -0.1431555700
   32       -0.0236190400
   33        0.0773945900
   34        0.0943285400
 Ene=          0.00126337
 Spin= Alpha
 Occup=        0.00000000
    1       -0.0000000000
    2        0.0000000000
    3       -0.0000000000
    4        0.0000000000
    5       -0.0000000000
    6        0.0000000000
    7       -0.0000000000
    8        0.0000000000
    9       -0.0000000000
   10        0.0000000000
   11       -0.0000000000
   12        0.0000000000
   13        0.0000000000
   14        0.0000000000
   15       -0.0000000000
   16       -0.0000000000
   17        0.0000000000
   18       -0.0000000000
   19        0.0000000000
   20       -0.0000000000
   21        0.0000000000
   22       -0.0000000000
   23       -0.0075285500
   24        0.0057014600
   25        0.0018270900
   26       -0.6062531100
   27       -0.0590859500
   28       -0.0011090700
   29        0.0153562700
   30       -0.0116294900
   31       -0.0037267800
   32        1.2365983800
   33        0.1205199500
   34        0.0022622100
 Ene=          0.00126337
 Spin= Alpha
 Occup=        0.00000000
    1        0.0000000000
    2        0.0000000000
    3       -0.0000000000
    4        0.0000000000
    5       -0.0000000000
    6        0.0000000000
    7       -0.0000000000
    8        0.0000000000
    9       -0.0000000000
   10        0.0000000000
   11       -0.0000000000
   12        0.0000000000
   13        0.0000000000
   14        0.0000000000
   15       -0.0000000000
   16       -0.0000000000
   17       -0.0000000000
   18        0.0000000000
   19        0.0000000000
   20       -0.0000000000
   21       -0.0000000000
   22       -0.0000000000
   23        0.0318411800
   24       -0.0380388400
   25        0.0061976700
   26        0.0584799900
   27       -0.6049690800
   28       -0.0048215100
   29       -0.0649477100
   30        0.0775893300
   31       -0.0126416200
   32       -0.1192839400
   33        1.2339793000
   34        0.0098346200
 Ene=          0.00126337
 Spin= Alpha
 Occup=        0.00000000
    1        0.0000000000
    2        0.0000000000
    3       -0.0000000000
    4        0.0000000000
    5       -0.0000000000
    6        0.0000000000
    7       -0.0000000000
    8        0.0000000000
    9       -0.0000000000
   10        0.0000000000
   11        0.0000000000
   12       -0.0000000000
   13        0.0000000000
   14       -0.0000000000
   15        0.0000000000
   16        0.0000000000
   17        0.0000000000
   18       -0.0000000000
   19       -0.0000000000
   20       -0.0000000000
   21        0.0000000000
   22        0.0000000000
   23        0.0319052600
   24       -0.0519795100
   25        0.0200742500
   26       -0.0002434300
   27        0.0082485500
   28       -0.6068610000
   29       -0.0650784200
   30        0.1060246600
   31       -0.0409462400
   32        0.0004965300
   33       -0.0168249000
   34        1.2378383200
 Ene=          0.00188093
 Spin= Alpha
 Occup=        0.00000000
    1       10.2260296000
    2        0.8391669000
    3       -2.4104815200
    4        0.2985804700
    5       -0.1413697700
    6       -0.0230959200
    7       -0.0347269200
    8        0.0159772600
    9        0.0014960500
   10        0.0000285000
   11        0.0000000000
   12       -0.0000000000
   13        0.0000000000
   14       -0.0000000000
   15        0.0000000000
   16       -0.0000000000
   17        0.0000000000
   18       -0.0000000000
   19        0.0000000000
   20        0.0000000000
   21        0.0000000000
   22       -0.0000000000
   23       -1.5228773800
   24       -1.5228773800
   25       -1.5228773800
   26        0.0000000000
   27        0.0000000000
   28        0.0000000000
   29       -3.4189514000
   30       -3.4189514000
   31       -3.4189514000
   32       -0.0000000000
   33       -0.0000000000
   34       -0.0000000000
 Ene=          0.00300628
 Spin= Alpha
 Occup=        0.00000000
    1       -0.0000000000
    2       -0.0000000000
    3        0.0000000000
    4       -0.0000000000
    5        0.0000000000
    6       -0.0000000000
    7        0.0000000000
    8        0.0000000000
    9       -0.0000000000
   10        0.0000000000
   11        0.0030749600
   12       -0.4643501800
   13        0.0145370400
   14       -0.0088194700
   15        1.3318289300
   16       -0.0416945000
   17        0.0110845200
   18       -1.6738744400
   19        0.0524026400
   20       -0.0011022700
   21        0.1664543500
   22       -0.0052110500
   23        0.0000000000
   24        0.0000000000
   25        0.0000000000
   26       -0.0000000000
   27        0.0000000000
   28        0.0000000000
   29        0.0000000000
   30        0.0000000000
   31        0.0000000000
   32       -0.0000000000
   33       -0.0000000000
   34       -0.0000000000
 Ene=          0.00300628
 Spin= Alpha
 Occup=        0.00000000
    1        0.0000000000
    2       -0.0000000000
    3       -0.0000000000
    4        0.0000000000
    5       -0.0000000000
    6       -0.0000000000
    7       -0.0000000000
    8        0.0000000000
    9       -0.0000000000
   10        0.0000000000
   11        0.0014698300
   12       -0.0145275600
   13       -0.4643583300
   14       -0.0042157100
   15        0.0416673100
   16        1.3318523100
   17        0.0052984000
   18       -0.0523684700
   19       -1.6739038200
   20       -0.0005268900
   21        0.0052076500
   22        0.1664572700
   23       -0.0000000000
   24       -0.0000000000
   25       -0.0000000000
   26        0.0000000000
   27       -0.0000000000
   28        0.0000000000
   29       -0.0000000000
   30       -0.0000000000
   31       -0.0000000000
   32        0.0000000000
   33        0.0000000000
   34       -0.0000000000
 Ene=          0.00300628
 Spin= Alpha
 Occup=        0.00000000
    1       -0.0000000000
    2       -0.0000000000
    3        0.0000000000
    4       -0.0000000000
    5        0.0000000000
    6       -0.0000000000
    7       -0.0000000000
    8       -0.0000000000
    9        0.0000000000
   10       -0.0000000000
   11        0.4645753500
   12        0.0031194300
   13        0.0013729300
   14       -1.3324747500
   15       -0.0089470300
   16       -0.0039377700
   17        1.6746861200
   18        0.0112448400
   19        0.0049490800
   20       -0.1665350600
   21       -0.0011182200
   22       -0.0004921500
   23        0.0000000000
   24        0.0000000000
   25        0.0000000000
   26       -0.0000000000
   27       -0.0000000000
   28       -0.0000000000
   29        0.0000000000
   30        0.0000000000
   31        0.0000000000
   32       -0.0000000000
   33        0.0000000000
   34       -0.0000000000
 Ene=          0.00423329
 Spin= Alpha
 Occup=        0.00000000
    1        7.4866747600
    2        5.2808789200
    3       -6.6699913600
    4        1.3496000500
    5       -0.1554877200
    6        0.1674458700
    7        0.0315962500
    8       -0.0208571300
    9       -0.0053275700
   10        0.0003799400
   11        0.0000000000
   12       -0.0000000000
   13       -0.0000000000
   14       -0.0000000000
   15        0.0000000000
   16       -0.0000000000
   17        0.0000000000
   18       -0.0000000000
   19       -0.0000000000
   20       -0.0000000000
   21        0.0000000000
   22        0.0000000000
   23       -1.0652808900
   24       -1.0652808900
   25       -1.0652808900
   26        0.0000000000
   27        0.0000000000
   28        0.0000000000
   29       -3.4018094600
   30       -3.4018094600
   31       -3.4018094600
   32       -0.0000000000
   33       -0.0000000000
   34       -0.0000000000
 Ene=          0.00818484
 Spin= Alpha
 Occup=        0.00000000
    1        0.0000000000
    2        0.0000000000
    3       -0.0000000000
    4        0.0000000000
    5       -0.0000000000
    6        0.0000000000
    7       -0.0000000000
    8       -0.0000000000
    9        0.0000000000
   10        0.0000000000
   11       -0.0040556100
   12        0.2398430900
   13       -0.0026281900
   14        0.0126628300
   15       -0.7488626900
   16        0.0082060000
   17       -0.0252021100
   18        1.4904190100
   19       -0.0163319300
   20        0.0262889500
   21       -1.5546935600
   22        0.0170362500
   23       -0.0000000000
   24       -0.0000000000
   25       -0.0000000000
   26        0.0000000000
   27        0.0000000000
   28       -0.0000000000
   29       -0.0000000000
   30       -0.0000000000
   31       -0.0000000000
   32        0.0000000000
   33       -0.0000000000
   34        0.0000000000
 Ene=          0.00818484
 Spin= Alpha
 Occup=        0.00000000
    1        0.0000000000
    2       -0.0000000000
    3       -0.0000000000
    4        0.0000000000
    5       -0.0000000000
    6        0.0000000000
    7       -0.0000000000
    8        0.0000000000
    9       -0.0000000000
   10       -0.0000000000
   11        0.0122218500
   12       -0.0024185100
   13       -0.2395680300
   14       -0.0381603100
   15        0.0075513200
   16        0.7480038700
   17        0.0759483000
   18       -0.0150289600
   19       -1.4887097400
   20       -0.0792235800
   21        0.0156770900
   22        1.5529105800
   23       -0.0000000000
   24       -0.0000000000
   25       -0.0000000000
   26       -0.0000000000
   27        0.0000000000
   28        0.0000000000
   29       -0.0000000000
   30       -0.0000000000
   31       -0.0000000000
   32        0.0000000000
   33        0.0000000000
   34       -0.0000000000
 Ene=          0.00818484
 Spin= Alpha
 Occup=        0.00000000
    1        0.0000000000
    2        0.0000000000
    3       -0.0000000000
    4        0.0000000000
    5       -0.0000000000
    6       -0.0000000000
    7       -0.0000000000
    8       -0.0000000000
    9        0.0000000000
   10       -0.0000000000
   11       -0.2395459100
   12       -0.0041840300
   13       -0.0121784800
   14        0.7479348000
   15        0.0130638100
   16        0.0380249000
   17       -1.4885722700
   18       -0.0260001700
   19       -0.0756788100
   20        1.5527671900
   21        0.0271214300
   22        0.0789424700
   23       -0.0000000000
   24        0.0000000000
   25       -0.0000000000
   26       -0.0000000000
   27       -0.0000000000
   28        0.0000000000
   29        0.0000000000
   30       -0.0000000000
   31       -0.0000000000
   32        0.0000000000
   33        0.0000000000
   34       -0.0000000000
 Ene=          0.01159530
 Spin= Alpha
 Occup=        0.00000000
    1        4.3655865700
    2        4.2118253000
    3       -6.4819904300
    4        4.3315033900
    5       -1.4764420600
    6        0.0618412600
    7       -0.1957992000
    8        0.0803234600
    9        0.0030629400
   10        0.0007018600
   11        0.0000000000
   12       -0.0000000000
   13        0.0000000000
   14       -0.0000000000
   15        0.0000000000
   16       -0.0000000000
   17        0.0000000000
   18       -0.0000000000
   19        0.0000000000
   20       -0.0000000000
   21        0.0000000000
   22       -0.0000000000
   23       -0.6210482200
   24       -0.6210482200
   25       -0.6210482200
   26        0.0000000000
   27        0.0000000000
   28        0.0000000000
   29       -2.1399909600
   30       -2.1399909600
   31       -2.1399909600
   32       -0.0000000000
   33       -0.0000000000
   34       -0.0000000000
 Ene=          0.03973770
 Spin= Alpha
 Occup=        0.00000000
    1       -2.2702886900
    2       -2.1831777500
    3        3.6199018700
    4       -3.6940882400
    5        4.0264829800
    6       -2.1626086000
    7        0.0891420700
    8        0.0393445900
    9        0.0428345200
   10       -0.0046266600
   11        0.0000000000
   12        0.0000000000
   13       -0.0000000000
   14        0.0000000000
   15       -0.0000000000
   16        0.0000000000
   17        0.0000000000
   18        0.0000000000
   19       -0.0000000000
   20       -0.0000000000
   21       -0.0000000000
   22        0.0000000000
   23        0.3253784100
   24        0.3253784100
   25        0.3253784100
   26       -0.0000000000
   27       -0.0000000000
   28       -0.0000000000
   29        1.1028859800
   30        1.1028859800
   31        1.1028859800
   32        0.0000000000
   33        0.0000000000
   34        0.0000000000
 Ene=          0.15914000
 Spin= Alpha
 Occup=        0.00000000
    1       -1.0865283100
    2       -1.0112239500
    3        1.6884360600
    4       -1.8226491600
    5        2.7816069400
    6       -3.8966604500
    7        3.2332041900
    8       -0.8817474900
    9        0.0756618700
   10       -0.0206686700
   11       -0.0000000000
   12        0.0000000000
   13        0.0000000000
   14        0.0000000000
   15       -0.0000000000