 Molden2AIM, Version 3.1.0 (02/25/2015)           Time: Mon Dec  2 17:41:17 2024
GAUSSIAN             23 MOL ORBITALS     36 PRIMITIVES        1 NUCLEI
  Be   1    (CENTRE  1)   0.00000000  0.00000000  0.00000000  CHARGE =  4.0
CENTRE ASSIGNMENTS    1  1  1  1  1  1  1  1  1  1  1  1  1  1  1  1  1  1  1  1
CENTRE ASSIGNMENTS    1  1  1  1  1  1  1  1  1  1  1  1  1  1  1  1
TYPE ASSIGNMENTS      1  1  1  1  1  1  1  1  1  2  2  2  3  3  3  4  4  4  1  2
TYPE ASSIGNMENTS      3  4  1  2  3  4  1  2  3  4  5  6  7  8  9 10
EXPONENTS  0.1682800D+04 0.2517150D+03 0.5741160D+02 0.1651710D+02 0.4853640D+01
EXPONENTS  0.6268630D+00 0.8309380D+01 0.1740750D+01 0.4858160D+00 0.8309380D+01
EXPONENTS  0.1740750D+01 0.4858160D+00 0.8309380D+01 0.1740750D+01 0.4858160D+00
EXPONENTS  0.8309380D+01 0.1740750D+01 0.4858160D+00 0.1636130D+00 0.1636130D+00
EXPONENTS  0.1636130D+00 0.1636130D+00 0.5672850D-01 0.5672850D-01 0.5672850D-01
EXPONENTS  0.5672850D-01 0.2070000D-01 0.2070000D-01 0.2070000D-01 0.2070000D-01
EXPONENTS  0.2550000D+00 0.2550000D+00 0.2550000D+00 0.2550000D+00 0.2550000D+00
EXPONENTS  0.2550000D+00
MO    1     MO 0.0        OCC NO =    2.0000000  ORB. ENERGY =   -4.081510
  0.25501958D+00  0.47213239D+00  0.76461241D+00  0.98054514D+00  0.88952028D+00
  0.43218576D-01  0.16487594D+00  0.43585302D+00 -0.53632049D-03  0.00000000D+00
  0.00000000D+00  0.00000000D+00  0.00000000D+00  0.00000000D+00  0.00000000D+00
 -0.00000000D+00 -0.00000000D+00 -0.00000000D+00  0.63933798D-02  0.00000000D+00
 -0.00000000D+00 -0.00000000D+00  0.20636855D-03  0.00000000D+00  0.00000000D+00
  0.00000000D+00 -0.48359827D-04  0.00000000D+00 -0.00000000D+00 -0.00000000D+00
 -0.18717069D-02 -0.18717069D-02 -0.18717069D-02 -0.00000000D+00 -0.00000000D+00
  0.00000000D+00
MO    2     MO 0.0        OCC NO =    2.0000000  ORB. ENERGY =   -0.229108
 -0.53122773D-01 -0.98349239D-01 -0.15927535D+00 -0.20425599D+00 -0.18529473D+00
 -0.90028013D-02 -0.71265813D-01 -0.18839268D+00  0.23181864D-03 -0.00000000D+00
 -0.00000000D+00 -0.00000000D+00  0.00000000D+00  0.00000000D+00  0.00000000D+00
  0.00000000D+00  0.00000000D+00  0.00000000D+00  0.11477460D+00 -0.00000000D+00
  0.00000000D+00  0.00000000D+00  0.39052745D-01 -0.00000000D+00  0.00000000D+00
 -0.00000000D+00  0.97115173D-03  0.00000000D+00 -0.00000000D+00  0.00000000D+00
 -0.12028419D-02 -0.12028419D-02 -0.12028419D-02 -0.00000000D+00  0.00000000D+00
  0.00000000D+00
MO    3     MO 0.0        OCC NO =    0.0000000  ORB. ENERGY =   -0.049639
 -0.00000000D+00 -0.00000000D+00 -0.00000000D+00 -0.00000000D+00 -0.00000000D+00
 -0.00000000D+00 -0.00000000D+00 -0.00000000D+00  0.00000000D+00 -0.38832144D-01
 -0.33045012D-01 -0.26009293D-01  0.44246689D-01  0.37652631D-01  0.29635889D-01
 -0.15577418D+00 -0.13255924D+00 -0.10433563D+00  0.00000000D+00 -0.12452279D-01
  0.14188558D-01 -0.49952008D-01 -0.00000000D+00 -0.40244896D-02  0.45856433D-02
 -0.16144141D-01  0.00000000D+00 -0.56104220D-03  0.63927097D-03 -0.22506070D-02
 -0.00000000D+00  0.00000000D+00  0.00000000D+00  0.00000000D+00  0.00000000D+00
 -0.00000000D+00
MO    4     MO 0.0        OCC NO =    0.0000000  ORB. ENERGY =   -0.049639
  0.00000000D+00  0.00000000D+00  0.00000000D+00  0.00000000D+00  0.00000000D+00
  0.00000000D+00  0.00000000D+00  0.00000000D+00 -0.00000000D+00 -0.43139407D-03
 -0.36710366D-03 -0.28894245D-03  0.16016152D+00  0.13629274D+00  0.10727422D+00
  0.45600427D-01  0.38804622D-01  0.30542606D-01 -0.00000000D+00 -0.13833467D-03
  0.51358896D-01  0.14622661D-01  0.00000000D+00 -0.44708983D-04  0.16598837D-01
  0.47259423D-02 -0.00000000D+00 -0.62327576D-05  0.23139949D-02  0.65882968D-03
 -0.00000000D+00  0.00000000D+00 -0.00000000D+00  0.00000000D+00 -0.00000000D+00
  0.00000000D+00
MO    5     MO 0.0        OCC NO =    0.0000000  ORB. ENERGY =   -0.049639
  0.00000000D+00  0.00000000D+00  0.00000000D+00  0.00000000D+00  0.00000000D+00
  0.00000000D+00  0.00000000D+00  0.00000000D+00 -0.00000000D+00 -0.16193572D+00
 -0.13780253D+00 -0.10846256D+00 -0.11037012D-01 -0.93921724D-02 -0.73924550D-02
  0.37233127D-01  0.31684296D-01  0.24938292D-01 -0.00000000D+00 -0.51927826D-01
 -0.35392317D-02  0.11939524D-01  0.00000000D+00 -0.16782711D-01 -0.11438551D-02
  0.38587708D-02 -0.00000000D+00 -0.23396282D-02 -0.15946145D-03  0.53793981D-03
  0.00000000D+00 -0.00000000D+00 -0.00000000D+00 -0.00000000D+00  0.00000000D+00
 -0.00000000D+00
MO    6     MO 0.0        OCC NO =    0.0000000  ORB. ENERGY =    0.016746
 -0.19302086D-01 -0.35735059D-01 -0.57872475D-01 -0.74216130D-01 -0.67326582D-01
 -0.32711553D-02 -0.29751345D-01 -0.78648306D-01  0.96777345D-04  0.00000000D+00
  0.00000000D+00  0.00000000D+00 -0.00000000D+00 -0.00000000D+00 -0.00000000D+00
  0.00000000D+00  0.00000000D+00  0.00000000D+00  0.36854357D-01 -0.00000000D+00
  0.00000000D+00  0.00000000D+00  0.95229856D-01  0.00000000D+00 -0.00000000D+00
  0.00000000D+00 -0.66454839D-01 -0.00000000D+00 -0.00000000D+00 -0.00000000D+00
 -0.46166194D-02 -0.46166194D-02 -0.46166194D-02 -0.00000000D+00  0.00000000D+00
  0.00000000D+00
MO    7     MO 0.0        OCC NO =    0.0000000  ORB. ENERGY =    0.040195
 -0.00000000D+00 -0.00000000D+00 -0.00000000D+00 -0.00000000D+00 -0.00000000D+00
 -0.00000000D+00  0.00000000D+00  0.00000000D+00 -0.00000000D+00  0.30268898D-01
  0.25757942D-01  0.20273736D-01  0.10467890D+00  0.89078661D-01  0.70112639D-01
  0.40447132D-01  0.34419320D-01  0.27090993D-01  0.00000000D+00  0.57026768D-02
  0.19721560D-01  0.76202610D-02 -0.00000000D+00  0.74919498D-02  0.25909401D-01
  0.10011195D-01  0.00000000D+00 -0.38721520D-02 -0.13391059D-01 -0.51742032D-02
  0.00000000D+00 -0.00000000D+00  0.00000000D+00 -0.00000000D+00  0.00000000D+00
  0.00000000D+00
MO    8     MO 0.0        OCC NO =    0.0000000  ORB. ENERGY =    0.040195
  0.00000000D+00  0.00000000D+00  0.00000000D+00  0.00000000D+00  0.00000000D+00
  0.00000000D+00  0.00000000D+00  0.00000000D+00 -0.00000000D+00  0.55396883D-01
  0.47141118D-01  0.37104152D-01  0.22494947D-01  0.19142538D-01  0.15066839D-01
 -0.99674519D-01 -0.84820084D-01 -0.66760770D-01 -0.00000000D+00  0.10436802D-01
  0.42380602D-02 -0.18778735D-01  0.00000000D+00  0.13711455D-01  0.55677938D-02
 -0.24670753D-01 -0.00000000D+00 -0.70866517D-02 -0.28776680D-02  0.12750874D-01
  0.00000000D+00 -0.00000000D+00 -0.00000000D+00 -0.00000000D+00  0.00000000D+00
 -0.00000000D+00
MO    9     MO 0.0        OCC NO =    0.0000000  ORB. ENERGY =    0.040195
 -0.00000000D+00 -0.00000000D+00 -0.00000000D+00 -0.00000000D+00 -0.00000000D+00
 -0.00000000D+00 -0.00000000D+00 -0.00000000D+00  0.00000000D+00  0.97595220D-01
  0.83050662D-01  0.65368081D-01 -0.45234431D-01 -0.38493170D-01 -0.30297467D-01
  0.44032561D-01  0.37470415D-01  0.29492469D-01  0.00000000D+00  0.18386992D-01
 -0.85221915D-02  0.82957581D-02 -0.00000000D+00  0.24156098D-01 -0.11196116D-01
  0.10898637D-01  0.00000000D+00 -0.12484879D-01  0.57866196D-02 -0.56328702D-02
  0.00000000D+00 -0.00000000D+00  0.00000000D+00  0.00000000D+00 -0.00000000D+00
 -0.00000000D+00
MO   10     MO 0.0        OCC NO =    0.0000000  ORB. ENERGY =    0.227597
 -0.00000000D+00 -0.00000000D+00 -0.00000000D+00 -0.00000000D+00 -0.00000000D+00
 -0.00000000D+00 -0.00000000D+00 -0.00000000D+00  0.00000000D+00  0.12776140D-01
  0.10872119D-01  0.85573017D-02 -0.17044788D+00 -0.14504613D+00 -0.11416390D+00
  0.65097763D-01  0.55396282D-01  0.43601683D-01  0.00000000D+00  0.11739749D-01
 -0.15662124D+00  0.59817070D-01 -0.00000000D+00 -0.53794453D-02  0.71767752D-01
 -0.27409671D-01  0.00000000D+00  0.72899213D-03 -0.97255621D-02  0.37144043D-02
  0.00000000D+00  0.00000000D+00  0.00000000D+00 -0.00000000D+00  0.00000000D+00
  0.00000000D+00
MO   11     MO 0.0        OCC NO =    0.0000000  ORB. ENERGY =    0.227597
 -0.00000000D+00 -0.00000000D+00 -0.00000000D+00 -0.00000000D+00 -0.00000000D+00
 -0.00000000D+00 -0.00000000D+00 -0.00000000D+00  0.00000000D+00  0.60198104D-03
  0.51226816D-03  0.40319951D-03  0.65296188D-01  0.55565135D-01  0.43734585D-01
  0.17084927D+00  0.14538771D+00  0.11443275D+00  0.00000000D+00  0.55314883D-03
  0.59999398D-01  0.15699007D+00 -0.00000000D+00 -0.25346666D-03 -0.27493217D-01
 -0.71936760D-01  0.00000000D+00  0.34348437D-04  0.37257262D-02  0.97484651D-02
  0.00000000D+00  0.00000000D+00  0.00000000D+00 -0.00000000D+00 -0.00000000D+00
  0.00000000D+00
MO   12     MO 0.0        OCC NO =    0.0000000  ORB. ENERGY =    0.227597
 -0.00000000D+00 -0.00000000D+00 -0.00000000D+00 -0.00000000D+00 -0.00000000D+00
 -0.00000000D+00 -0.00000000D+00 -0.00000000D+00  0.00000000D+00  0.18245503D+00
  0.15526386D+00  0.12220614D+00  0.11719926D-01  0.99733127D-02  0.78498629D-02
 -0.51220634D-02 -0.43587253D-02 -0.34306952D-02  0.00000000D+00  0.16765437D+00
  0.10769211D-01 -0.47065663D-02 -0.00000000D+00 -0.76823408D-01 -0.49347209D-02
  0.21566657D-02  0.00000000D+00  0.10410676D-01  0.66872565D-03 -0.29225914D-03
  0.00000000D+00  0.00000000D+00  0.00000000D+00  0.00000000D+00 -0.00000000D+00
 -0.00000000D+00
MO   13     MO 0.0        OCC NO =    0.0000000  ORB. ENERGY =    0.228093
 -0.47194291D-01 -0.87373501D-01 -0.14150028D+00 -0.18146110D+00 -0.16461591D+00
 -0.79980920D-02 -0.50830916D-01 -0.13437260D+00  0.16534651D-03 -0.00000000D+00
 -0.00000000D+00 -0.00000000D+00  0.00000000D+00  0.00000000D+00  0.00000000D+00
 -0.00000000D+00 -0.00000000D+00 -0.00000000D+00  0.34265695D+00 -0.00000000D+00
  0.00000000D+00 -0.00000000D+00 -0.27782546D+00  0.00000000D+00 -0.00000000D+00
  0.00000000D+00  0.57680460D-01 -0.00000000D+00  0.00000000D+00 -0.00000000D+00
  0.30386418D-01  0.30386418D-01  0.30386418D-01 -0.00000000D+00 -0.00000000D+00
  0.00000000D+00
MO   14     MO 0.0        OCC NO =    0.0000000  ORB. ENERGY =    0.525808
 -0.00000000D+00 -0.00000000D+00 -0.00000000D+00 -0.00000000D+00 -0.00000000D+00
 -0.00000000D+00 -0.00000000D+00 -0.00000000D+00  0.00000000D+00  0.00000000D+00
  0.00000000D+00  0.00000000D+00 -0.00000000D+00 -0.00000000D+00 -0.00000000D+00
 -0.00000000D+00 -0.00000000D+00 -0.00000000D+00  0.00000000D+00 -0.00000000D+00
  0.00000000D+00 -0.00000000D+00  0.00000000D+00  0.00000000D+00 -0.00000000D+00
  0.00000000D+00 -0.00000000D+00 -0.00000000D+00  0.00000000D+00 -0.00000000D+00
  0.69960323D-01  0.79688709D-01 -0.14964903D+00 -0.23277290D-01 -0.35018980D-02
  0.14737155D-01
MO   15     MO 0.0        OCC NO =    0.0000000  ORB. ENERGY =    0.525808
 -0.00000000D+00 -0.00000000D+00 -0.00000000D+00 -0.00000000D+00 -0.00000000D+00
 -0.00000000D+00 -0.00000000D+00 -0.00000000D+00  0.00000000D+00  0.00000000D+00
  0.00000000D+00  0.00000000D+00 -0.00000000D+00 -0.00000000D+00 -0.00000000D+00
 -0.00000000D+00 -0.00000000D+00 -0.00000000D+00  0.00000000D+00 -0.00000000D+00
  0.00000000D+00 -0.00000000D+00 -0.00000000D+00  0.00000000D+00 -0.00000000D+00
  0.00000000D+00  0.00000000D+00 -0.00000000D+00  0.00000000D+00 -0.00000000D+00
 -0.92173796D-02 -0.51828495D-02  0.14400229D-01 -0.13881269D+00  0.10160296D-01
  0.21917994D+00
MO   16     MO 0.0        OCC NO =    0.0000000  ORB. ENERGY =    0.525808
 -0.00000000D+00 -0.00000000D+00 -0.00000000D+00 -0.00000000D+00 -0.00000000D+00
 -0.00000000D+00 -0.00000000D+00 -0.00000000D+00  0.00000000D+00 -0.00000000D+00
 -0.00000000D+00 -0.00000000D+00  0.00000000D+00  0.00000000D+00  0.00000000D+00
  0.00000000D+00  0.00000000D+00  0.00000000D+00  0.00000000D+00  0.00000000D+00
 -0.00000000D+00 -0.00000000D+00 -0.00000000D+00 -0.00000000D+00  0.00000000D+00
  0.00000000D+00  0.00000000D+00  0.00000000D+00 -0.00000000D+00 -0.00000000D+00
  0.24208366D-01 -0.17317172D-01 -0.68911939D-02  0.21076962D+00 -0.52054841D-01
  0.13802190D+00
MO   17     MO 0.0        OCC NO =    0.0000000  ORB. ENERGY =    0.525808
 -0.00000000D+00 -0.00000000D+00 -0.00000000D+00 -0.00000000D+00 -0.00000000D+00
 -0.00000000D+00 -0.00000000D+00 -0.00000000D+00  0.00000000D+00  0.00000000D+00
  0.00000000D+00  0.00000000D+00  0.00000000D+00  0.00000000D+00  0.00000000D+00
 -0.00000000D+00 -0.00000000D+00 -0.00000000D+00  0.00000000D+00  0.00000000D+00
  0.00000000D+00  0.00000000D+00 -0.00000000D+00 -0.00000000D+00  0.00000000D+00
 -0.00000000D+00  0.00000000D+00  0.00000000D+00 -0.00000000D+00  0.00000000D+00
  0.97357937D-01 -0.91545970D-01 -0.58119669D-02  0.63397439D-02  0.17951073D+00
  0.31651764D-03
MO   18     MO 0.0        OCC NO =    0.0000000  ORB. ENERGY =    0.525808
 -0.00000000D+00 -0.00000000D+00 -0.00000000D+00 -0.00000000D+00 -0.00000000D+00
 -0.00000000D+00 -0.00000000D+00 -0.00000000D+00  0.00000000D+00  0.00000000D+00
  0.00000000D+00  0.00000000D+00 -0.00000000D+00 -0.00000000D+00 -0.00000000D+00
  0.00000000D+00  0.00000000D+00  0.00000000D+00  0.00000000D+00 -0.00000000D+00
 -0.00000000D+00 -0.00000000D+00 -0.00000000D+00  0.00000000D+00  0.00000000D+00
  0.00000000D+00 -0.00000000D+00  0.00000000D+00 -0.00000000D+00 -0.00000000D+00
  0.87403965D-01 -0.87325662D-01 -0.78300807D-04 -0.61445899D-01 -0.18166209D+00
 -0.27262511D-01
MO   19     MO 0.0        OCC NO =    0.0000000  ORB. ENERGY =    0.960693
 -0.00000000D+00 -0.00000000D+00 -0.00000000D+00 -0.00000000D+00 -0.00000000D+00
 -0.00000000D+00 -0.00000000D+00 -0.00000000D+00  0.00000000D+00 -0.24999420D-01
 -0.21273771D-01 -0.16744305D-01  0.10074299D+01  0.85729321D+00  0.67476418D+00
  0.47870688D-01  0.40736548D-01  0.32063199D-01  0.00000000D+00  0.67277699D-02
 -0.27111656D+00 -0.12882818D-01  0.00000000D+00 -0.11582311D-02  0.46674550D-01
  0.22178644D-02 -0.00000000D+00  0.11621200D-03 -0.46831252D-02 -0.22253105D-03
 -0.00000000D+00 -0.00000000D+00 -0.00000000D+00 -0.00000000D+00 -0.00000000D+00
  0.00000000D+00
MO   20     MO 0.0        OCC NO =    0.0000000  ORB. ENERGY =    0.960693
 -0.00000000D+00 -0.00000000D+00 -0.00000000D+00 -0.00000000D+00 -0.00000000D+00
 -0.00000000D+00  0.00000000D+00  0.00000000D+00 -0.00000000D+00  0.47212000D-01
  0.40176023D-01  0.31622018D-01 -0.46663965D-01 -0.39709662D-01 -0.31254951D-01
  0.10066902D+01  0.85666371D+00  0.67426871D+00  0.00000000D+00 -0.12705554D-01
  0.12558069D-01 -0.27091748D+00 -0.00000000D+00  0.21873471D-02 -0.21619565D-02
  0.46640278D-01  0.00000000D+00 -0.21946906D-03  0.21692145D-03 -0.46796865D-02
  0.00000000D+00 -0.00000000D+00  0.00000000D+00 -0.00000000D+00  0.00000000D+00
  0.00000000D+00
MO   21     MO 0.0        OCC NO =    0.0000000  ORB. ENERGY =    0.960693
  0.00000000D+00  0.00000000D+00  0.00000000D+00  0.00000000D+00  0.00000000D+00
  0.00000000D+00 -0.00000000D+00 -0.00000000D+00  0.00000000D+00 -0.10074610D+01
 -0.85731966D+00 -0.67478500D+00 -0.27185434D-01 -0.23134005D-01 -0.18208470D-01
  0.45988004D-01  0.39134439D-01  0.30802201D-01  0.00000000D+00  0.27112492D+00
  0.73160627D-02 -0.12376156D-01 -0.00000000D+00 -0.46675990D-01 -0.12595097D-02
  0.21306390D-02  0.00000000D+00  0.46832697D-02  0.12637389D-03 -0.21377922D-03
 -0.00000000D+00  0.00000000D+00  0.00000000D+00 -0.00000000D+00  0.00000000D+00
  0.00000000D+00
MO   22     MO 0.0        OCC NO =    0.0000000  ORB. ENERGY =    1.208450
 -0.80984350D-01 -0.14993098D+00 -0.24281131D+00 -0.31138319D+00 -0.28247722D+00
 -0.13724547D-01 -0.26457258D+00 -0.69940318D+00  0.86062099D-03 -0.00000000D+00
 -0.00000000D+00 -0.00000000D+00 -0.00000000D+00 -0.00000000D+00 -0.00000000D+00
  0.00000000D+00  0.00000000D+00  0.00000000D+00  0.51331446D+00  0.00000000D+00
  0.00000000D+00 -0.00000000D+00  0.12608779D+00 -0.00000000D+00 -0.00000000D+00
  0.00000000D+00 -0.21152638D-01  0.00000000D+00 -0.00000000D+00 -0.00000000D+00
 -0.25241201D+00 -0.25241201D+00 -0.25241201D+00 -0.00000000D+00  0.00000000D+00
 -0.00000000D+00
MO   23     MO 0.0        OCC NO =    0.0000000  ORB. ENERGY =    9.365870
 -0.82012725D+00 -0.15183487D+01 -0.24589464D+01 -0.31533727D+01 -0.28606424D+01
 -0.13898828D+00  0.97799073D+00  0.25853391D+01 -0.31812796D-02  0.00000000D+00
  0.00000000D+00  0.00000000D+00 -0.00000000D+00 -0.00000000D+00 -0.00000000D+00
 -0.00000000D+00 -0.00000000D+00 -0.00000000D+00 -0.37955562D+00  0.00000000D+00
 -0.00000000D+00  0.00000000D+00 -0.32307871D-01  0.00000000D+00 -0.00000000D+00
 -0.00000000D+00  0.59905639D-02  0.00000000D+00 -0.00000000D+00  0.00000000D+00
  0.13468940D+00  0.13468940D+00  0.13468940D+00 -0.00000000D+00  0.00000000D+00
 -0.00000000D+00
END DATA
 THE  HF ENERGY =    -14.657941825448 THE VIRIAL(-V/T)=   2.00612784


 $MOSPIN $END
 3 3 3 3 3 3 3 3 3 3 3 3 3 3 3 3 3 3 3 3 3 3 3


