[Molden Format]
[Atoms] AU
BE       1       4     0.00000000     0.00000000     0.00000000
[GTO]
  1 0
s  6 1.00
   1.6828000000E+03   2.2857400000E-03
   2.5171500000E+02   1.7593800000E-02
   5.7411600000E+01   8.6331500000E-02
   1.6517100000E+01   2.8183500000E-01
   4.8536400000E+00   6.4059400000E-01
   6.2686300000E-01   1.4446700000E-01
s  3 1.00
   8.3093800000E+00   1.0862100000E-01
   1.7407500000E+00   9.2730100000E-01
   4.8581600000E-01  -2.9716900000E-03
p  3 1.00
   8.3093800000E+00   3.6134400000E-02
   1.7407500000E+00   2.1695800000E-01
   4.8581600000E-01   8.4183900000E-01
s  1 1.00
   1.6361300000E-01   1.0000000000E+00
p  1 1.00
   1.6361300000E-01   1.0000000000E+00
s  1 1.00
   5.6728500000E-02   1.0000000000E+00
p  1 1.00
   5.6728500000E-02   1.0000000000E+00
s  1 1.00
   2.0700000000E-02   1.0000000000E+00
p  1 1.00
   2.0700000000E-02   1.0000000000E+00
d  1 1.00
   2.5500000000E-01   1.0000000000E+00
 
 
[MO]
Ene=    -4.08151E+00
Spin= Alpha
Occup=   2.0000000000
   1       0.59581595
   2       0.43516785
   3       0.00000000
   4       0.00000000
   5      -0.00000000
   6       0.03487041
   7       0.00000000
   8      -0.00000000
   9      -0.00000000
  10       0.00249105
  11       0.00000000
  12       0.00000000
  13       0.00000000
  14      -0.00124336
  15       0.00000000
  16      -0.00000000
  17      -0.00000000
  18      -0.01242748
  19      -0.01242748
  20      -0.01242748
  21      -0.00000000
  22      -0.00000000
  23       0.00000000
Ene=    -2.29108E-01
Spin= Alpha
Occup=   2.0000000000
   1      -0.12411359
   2      -0.18809652
   3      -0.00000000
   4       0.00000000
   5       0.00000000
   6       0.62599715
   7      -0.00000000
   8       0.00000000
   9       0.00000000
  10       0.47140100
  11      -0.00000000
  12       0.00000000
  13      -0.00000000
  14       0.02496889
  15       0.00000000
  16      -0.00000000
  17       0.00000000
  18      -0.00798645
  19      -0.00798645
  20      -0.00798645
  21      -0.00000000
  22       0.00000000
  23       0.00000000
Ene=    -4.96388E-02
Spin= Alpha
Occup=   0.0000000000
   1      -0.00000000
   2      -0.00000000
   3      -0.05344039
   4       0.06089183
   5      -0.21437479
   6       0.00000000
   7      -0.08395305
   8       0.09565902
   9      -0.33677559
  10      -0.00000000
  11      -0.10198096
  12       0.11620065
  13      -0.40909410
  14       0.00000000
  15      -0.05012940
  16       0.05711918
  17      -0.20109286
  18      -0.00000000
  19       0.00000000
  20       0.00000000
  21       0.00000000
  22       0.00000000
  23      -0.00000000
Ene=    -4.96388E-02
Spin= Alpha
Occup=   0.0000000000
   1       0.00000000
   2       0.00000000
   3      -0.00059368
   4       0.22041261
   5       0.06275483
   6      -0.00000000
   7      -0.00093265
   8       0.34626080
   9       0.09858573
  10       0.00000000
  11      -0.00113293
  12       0.42061615
  13       0.11975584
  14      -0.00000000
  15      -0.00055690
  16       0.20675660
  17       0.05886676
  18      -0.00000000
  19       0.00000000
  20      -0.00000000
  21       0.00000000
  22      -0.00000000
  23       0.00000000
Ene=    -4.96388E-02
Spin= Alpha
Occup=   0.0000000000
   1       0.00000000
   2       0.00000000
   3      -0.22285424
   4      -0.01518902
   5       0.05123984
   6      -0.00000000
   7      -0.35009652
   8      -0.02386144
   9       0.08049607
  10       0.00000000
  11      -0.42527554
  12      -0.02898540
  13       0.09778163
  14      -0.00000000
  15      -0.20904695
  16      -0.01424796
  17       0.04806519
  18       0.00000000
  19      -0.00000000
  20      -0.00000000
  21      -0.00000000
  22       0.00000000
  23      -0.00000000
Ene=     1.67457E-02
Spin= Alpha
Occup=   0.0000000000
   1      -0.04509650
   2      -0.07852467
   3       0.00000000
   4      -0.00000000
   5       0.00000000
   6       0.20100895
   7      -0.00000000
   8       0.00000000
   9       0.00000000
  10       1.14950816
  11       0.00000000
  12      -0.00000000
  13       0.00000000
  14      -1.70859353
  15      -0.00000000
  16      -0.00000000
  17      -0.00000000
  18      -0.03065274
  19      -0.03065274
  20      -0.03065274
  21      -0.00000000
  22       0.00000000
  23       0.00000000
Ene=     4.01950E-02
Spin= Alpha
Occup=   0.0000000000
   1      -0.00000000
   2       0.00000000
   3       0.04165574
   4       0.14405800
   5       0.05566292
   6       0.00000000
   7       0.03844735
   8       0.13296242
   9       0.05137567
  10      -0.00000000
  11       0.18984674
  12       0.65654675
  13       0.25368467
  14       0.00000000
  15      -0.34597871
  16      -1.19649776
  17      -0.46231764
  18       0.00000000
  19      -0.00000000
  20       0.00000000
  21      -0.00000000
  22       0.00000000
  23       0.00000000
Ene=     4.01950E-02
Spin= Alpha
Occup=   0.0000000000
   1       0.00000000
   2       0.00000000
   3       0.07623661
   4       0.03095731
   5      -0.13717103
   6      -0.00000000
   7       0.07036474
   8       0.02857293
   9      -0.12660591
  10       0.00000000
  11       0.34744961
  12       0.14108844
  13      -0.62515930
  14      -0.00000000
  15      -0.63319586
  16      -0.25712107
  17       1.13929694
  18       0.00000000
  19      -0.00000000
  20      -0.00000000
  21      -0.00000000
  22       0.00000000
  23      -0.00000000
Ene=     4.01950E-02
Spin= Alpha
Occup=   0.0000000000
   1      -0.00000000
   2      -0.00000000
   3       0.13430952
   4      -0.06225115
   5       0.06059715
   6       0.00000000
   7       0.12396479
   8      -0.05745647
   9       0.05592986
  10      -0.00000000
  11       0.61211789
  12      -0.28371068
  13       0.27617253
  14       0.00000000
  15      -1.11553014
  16       0.51703735
  17      -0.50329976
  18       0.00000000
  19      -0.00000000
  20       0.00000000
  21       0.00000000
  22      -0.00000000
  23      -0.00000000
Ene=     2.27597E-01
Spin= Alpha
Occup=   0.0000000000
   1      -0.00000000
   2      -0.00000000
   3       0.01758239
   4      -0.23456859
   5       0.08958686
   6       0.00000000
   7       0.07914919
   8      -1.05593775
   9       0.40328567
  10      -0.00000000
  11      -0.13631567
  12       1.81860186
  13      -0.69456374
  14       0.00000000
  15       0.06513581
  16      -0.86898382
  17       0.33188388
  18       0.00000000
  19       0.00000000
  20       0.00000000
  21      -0.00000000
  22       0.00000000
  23       0.00000000
Ene=     2.27597E-01
Spin= Alpha
Occup=   0.0000000000
   1      -0.00000000
   2      -0.00000000
   3       0.00082844
   4       0.08985993
   5       0.23512098
   6       0.00000000
   7       0.00372932
   8       0.40451492
   9       1.05842441
  10      -0.00000000
  11      -0.00642287
  12      -0.69668082
  13      -1.82288454
  14       0.00000000
  15       0.00306905
  16       0.33289549
  17       0.87103022
  18       0.00000000
  19       0.00000000
  20       0.00000000
  21      -0.00000000
  22      -0.00000000
  23       0.00000000
Ene=     2.27597E-01
Spin= Alpha
Occup=   0.0000000000
   1      -0.00000000
   2      -0.00000000
   3       0.25109270
   4       0.01612884
   5      -0.00704893
   6       0.00000000
   7       1.13032294
   8       0.07260584
   9      -0.03173159
  10      -0.00000000
  11      -1.94671268
  12      -0.12504631
  13       0.05465012
  14       0.00000000
  15       0.93019910
  16       0.05975097
  17      -0.02611350
  18       0.00000000
  19       0.00000000
  20       0.00000000
  21       0.00000000
  22      -0.00000000
  23      -0.00000000
Ene=     2.28093E-01
Spin= Alpha
Occup=   0.0000000000
   1      -0.11026256
   2      -0.13416136
   3      -0.00000000
   4       0.00000000
   5      -0.00000000
   6       1.86890014
   7      -0.00000000
   8       0.00000000
   9      -0.00000000
  10      -3.35359779
  11       0.00000000
  12      -0.00000000
  13       0.00000000
  14       1.48299903
  15      -0.00000000
  16       0.00000000
  17      -0.00000000
  18       0.20175520
  19       0.20175520
  20       0.20175520
  21      -0.00000000
  22      -0.00000000
  23       0.00000000
Ene=     5.25808E-01
Spin= Alpha
Occup=   0.0000000000
   1      -0.00000000
   2      -0.00000000
   3       0.00000000
   4      -0.00000000
   5      -0.00000000
   6       0.00000000
   7      -0.00000000
   8       0.00000000
   9      -0.00000000
  10       0.00000000
  11       0.00000000
  12      -0.00000000
  13       0.00000000
  14      -0.00000000
  15      -0.00000000
  16       0.00000000
  17      -0.00000000
  18       0.46451210
  19       0.52910519
  20      -0.99361728
  21      -0.08923126
  22      -0.01342419
  23       0.05649347
Ene=     5.25808E-01
Spin= Alpha
Occup=   0.0000000000
   1      -0.00000000
   2      -0.00000000
   3       0.00000000
   4      -0.00000000
   5      -0.00000000
   6       0.00000000
   7      -0.00000000
   8       0.00000000
   9      -0.00000000
  10      -0.00000000
  11       0.00000000
  12      -0.00000000
  13       0.00000000
  14       0.00000000
  15      -0.00000000
  16       0.00000000
  17      -0.00000000
  18      -0.06120018
  19      -0.03441231
  20       0.09561249
  21      -0.53212514
  22       0.03894852
  23       0.84020527
Ene=     5.25808E-01
Spin= Alpha
Occup=   0.0000000000
   1      -0.00000000
   2      -0.00000000
   3      -0.00000000
   4       0.00000000
   5       0.00000000
   6       0.00000000
   7       0.00000000
   8      -0.00000000
   9      -0.00000000
  10      -0.00000000
  11      -0.00000000
  12       0.00000000
  13       0.00000000
  14       0.00000000
  15       0.00000000
  16      -0.00000000
  17      -0.00000000
  18       0.16073509
  19      -0.11497997
  20      -0.04575512
  21       0.80796511
  22      -0.19954724
  23       0.52909370
Ene=     5.25808E-01
Spin= Alpha
Occup=   0.0000000000
   1      -0.00000000
   2      -0.00000000
   3       0.00000000
   4       0.00000000
   5      -0.00000000
   6       0.00000000
   7       0.00000000
   8       0.00000000
   9       0.00000000
  10      -0.00000000
  11      -0.00000000
  12       0.00000000
  13      -0.00000000
  14       0.00000000
  15       0.00000000
  16      -0.00000000
  17       0.00000000
  18       0.64642269
  19      -0.60783326
  20      -0.03858943
  21       0.02430280
  22       0.68813717
  23       0.00121334
Ene=     5.25808E-01
Spin= Alpha
Occup=   0.0000000000
   1      -0.00000000
   2      -0.00000000
   3       0.00000000
   4      -0.00000000
   5       0.00000000
   6       0.00000000
   7      -0.00000000
   8      -0.00000000
   9      -0.00000000
  10      -0.00000000
  11       0.00000000
  12       0.00000000
  13       0.00000000
  14      -0.00000000
  15       0.00000000
  16      -0.00000000
  17      -0.00000000
  18       0.58033179
  19      -0.57981189
  20      -0.00051989
  21      -0.23554696
  22      -0.69638419
  23      -0.10450822
Ene=     9.60693E-01
Spin= Alpha
Occup=   0.0000000000
   1      -0.00000000
   2      -0.00000000
   3      -0.03440394
   4       1.38641447
   5       0.06587914
   6       0.00000000
   7       0.04535851
   8      -1.82786321
   9      -0.08685574
  10       0.00000000
  11      -0.02934969
  12       1.18273766
  13       0.05620090
  14      -0.00000000
  15       0.01038360
  16      -0.41843957
  17      -0.01988326
  18      -0.00000000
  19      -0.00000000
  20      -0.00000000
  21      -0.00000000
  22      -0.00000000
  23       0.00000000
Ene=     9.60693E-01
Spin= Alpha
Occup=   0.0000000000
   1      -0.00000000
   2       0.00000000
   3       0.06497266
   4      -0.06421846
   5       1.38539645
   6       0.00000000
   7      -0.08566063
   8       0.08466629
   9      -1.82652104
  10      -0.00000000
  11       0.05542759
  12      -0.05478419
  13       1.18186920
  14       0.00000000
  15      -0.01960967
  16       0.01938204
  17      -0.41813232
  18       0.00000000
  19      -0.00000000
  20       0.00000000
  21      -0.00000000
  22       0.00000000
  23       0.00000000
Ene=     9.60693E-01
Spin= Alpha
Occup=   0.0000000000
   1       0.00000000
   2      -0.00000000
   3      -1.38645725
   4      -0.03741231
   5       0.06328821
   6       0.00000000
   7       1.82791961
   8       0.04932477
   9      -0.08343983
  10      -0.00000000
  11      -1.18277416
  12      -0.03191610
  13       0.05399060
  14       0.00000000
  15       0.41845248
  16       0.01129157
  17      -0.01910128
  18      -0.00000000
  19       0.00000000
  20       0.00000000
  21      -0.00000000
  22       0.00000000
  23       0.00000000
Ene=     1.20845E+00
Spin= Alpha
Occup=   0.0000000000
   1      -0.18920809
   2      -0.69830371
   3      -0.00000000
   4      -0.00000000
   5       0.00000000
   6       2.79969066
   7       0.00000000
   8       0.00000000
   9      -0.00000000
  10       1.52199058
  11      -0.00000000
  12      -0.00000000
  13       0.00000000
  14      -0.54384694
  15       0.00000000
  16      -0.00000000
  17      -0.00000000
  18      -1.67592758
  19      -1.67592758
  20      -1.67592758
  21      -0.00000000
  22       0.00000000
  23      -0.00000000
Ene=     9.36587E+00
Spin= Alpha
Occup=   0.0000000000
   1      -1.91610737
   2       2.58127489
   3       0.00000000
   4      -0.00000000
   5      -0.00000000
   6      -2.07015079
   7       0.00000000
   8      -0.00000000
   9       0.00000000
  10      -0.38998444
  11       0.00000000
  12      -0.00000000
  13      -0.00000000
  14       0.15402097
  15       0.00000000
  16      -0.00000000
  17       0.00000000
  18       0.89429053
  19       0.89429053
  20       0.89429053
  21      -0.00000000
  22       0.00000000
  23      -0.00000000
