 Molden2AIM, Version 3.1.0 (02/25/2015)           Time: Mon Dec  2 17:41:10 2024
GAUSSIAN             23 MOL ORBITALS     36 PRIMITIVES        1 NUCLEI
  Be   1    (CENTRE  1)   0.00000000  0.00000000  0.00000000  CHARGE =  4.0
CENTRE ASSIGNMENTS    1  1  1  1  1  1  1  1  1  1  1  1  1  1  1  1  1  1  1  1
CENTRE ASSIGNMENTS    1  1  1  1  1  1  1  1  1  1  1  1  1  1  1  1
TYPE ASSIGNMENTS      1  1  1  1  1  1  1  1  1  2  2  2  3  3  3  4  4  4  1  2
TYPE ASSIGNMENTS      3  4  1  2  3  4  1  2  3  4  5  6  7  8  9 10
EXPONENTS  0.1682800D+04 0.2517150D+03 0.5741160D+02 0.1651710D+02 0.4853640D+01
EXPONENTS  0.6268630D+00 0.8309380D+01 0.1740750D+01 0.4858160D+00 0.8309380D+01
EXPONENTS  0.1740750D+01 0.4858160D+00 0.8309380D+01 0.1740750D+01 0.4858160D+00
EXPONENTS  0.8309380D+01 0.1740750D+01 0.4858160D+00 0.1636130D+00 0.1636130D+00
EXPONENTS  0.1636130D+00 0.1636130D+00 0.5672850D-01 0.5672850D-01 0.5672850D-01
EXPONENTS  0.5672850D-01 0.2070000D-01 0.2070000D-01 0.2070000D-01 0.2070000D-01
EXPONENTS  0.2550000D+00 0.2550000D+00 0.2550000D+00 0.2550000D+00 0.2550000D+00
EXPONENTS  0.2550000D+00
MO    1     MO 0.0        OCC NO =    2.0000000  ORB. ENERGY =   -4.131680
  0.25515812D+00  0.47238887D+00  0.76502779D+00  0.98107783D+00  0.89000352D+00
  0.43242054D-01  0.16486559D+00  0.43582564D+00 -0.53628680D-03  0.00000000D+00
  0.00000000D+00  0.00000000D+00  0.00000000D+00  0.00000000D+00  0.00000000D+00
 -0.00000000D+00 -0.00000000D+00 -0.00000000D+00  0.62020628D-02  0.00000000D+00
 -0.00000000D+00 -0.00000000D+00  0.21634048D-03  0.00000000D+00  0.00000000D+00
  0.00000000D+00 -0.50130304D-04  0.00000000D+00 -0.00000000D+00 -0.00000000D+00
 -0.18299758D-02 -0.18299758D-02 -0.18299758D-02 -0.00000000D+00 -0.00000000D+00
 -0.00000000D+00
MO    2     MO 0.0        OCC NO =    2.0000000  ORB. ENERGY =   -0.261424
  0.51074513D-01  0.94557178D-01  0.15313415D+00  0.19638047D+00  0.17815030D+00
  0.86556794D-02  0.68283638D-01  0.18050923D+00 -0.22211800D-03 -0.00000000D+00
 -0.00000000D+00 -0.00000000D+00  0.00000000D+00  0.00000000D+00  0.00000000D+00
  0.00000000D+00  0.00000000D+00  0.00000000D+00 -0.11733631D+00 -0.00000000D+00
  0.00000000D+00  0.00000000D+00 -0.19929991D-01  0.00000000D+00  0.00000000D+00
  0.00000000D+00 -0.11554750D-01 -0.00000000D+00  0.00000000D+00 -0.00000000D+00
  0.97373346D-03  0.97373346D-03  0.97373346D-03  0.00000000D+00 -0.00000000D+00
  0.00000000D+00
MO    3     MO 0.0        OCC NO =    0.0000000  ORB. ENERGY =   -0.162369
 -0.00000000D+00 -0.00000000D+00 -0.00000000D+00 -0.00000000D+00 -0.00000000D+00
 -0.00000000D+00 -0.00000000D+00 -0.00000000D+00  0.00000000D+00 -0.10552689D-01
 -0.89800279D-02 -0.70680615D-02 -0.10422111D-02 -0.88689099D-03 -0.69806020D-03
 -0.22187860D-02 -0.18881216D-02 -0.14861156D-02  0.00000000D+00 -0.33636282D-01
 -0.33220197D-02 -0.70722976D-02  0.00000000D+00  0.23452000D-01  0.23161896D-02
  0.49309711D-02 -0.00000000D+00 -0.14524292D-01 -0.14344625D-02 -0.30538489D-02
 -0.00000000D+00  0.00000000D+00 -0.00000000D+00  0.00000000D+00 -0.00000000D+00
 -0.00000000D+00
MO    4     MO 0.0        OCC NO =    0.0000000  ORB. ENERGY =   -0.162369
 -0.00000000D+00 -0.00000000D+00 -0.00000000D+00 -0.00000000D+00 -0.00000000D+00
 -0.00000000D+00 -0.00000000D+00 -0.00000000D+00  0.00000000D+00 -0.23327601D-02
 -0.19851102D-02 -0.15624541D-02  0.72826960D-02  0.61973601D-02  0.48778604D-02
  0.76739139D-02  0.65302750D-02  0.51398934D-02  0.00000000D+00 -0.74355928D-02
  0.23213313D-01  0.24460309D-01  0.00000000D+00  0.51842685D-02 -0.16184863D-01
 -0.17054298D-01 -0.00000000D+00 -0.32107210D-02  0.10023609D-01  0.10562068D-01
 -0.00000000D+00 -0.00000000D+00 -0.00000000D+00  0.00000000D+00  0.00000000D+00
  0.00000000D+00
MO    5     MO 0.0        OCC NO =    0.0000000  ORB. ENERGY =   -0.162369
 -0.00000000D+00 -0.00000000D+00 -0.00000000D+00 -0.00000000D+00 -0.00000000D+00
 -0.00000000D+00 -0.00000000D+00 -0.00000000D+00  0.00000000D+00 -0.75329014D-03
 -0.64102775D-03 -0.50454449D-03 -0.79526401D-02 -0.67674628D-02 -0.53265807D-02
  0.73182216D-02  0.62275914D-02  0.49016550D-02  0.00000000D+00 -0.24010784D-02
 -0.25348745D-01  0.23326563D-01  0.00000000D+00  0.16740883D-02  0.17673737D-01
 -0.16263824D-01 -0.00000000D+00 -0.10367963D-02 -0.10945699D-01  0.10072511D-01
  0.00000000D+00 -0.00000000D+00 -0.00000000D+00 -0.00000000D+00  0.00000000D+00
  0.00000000D+00
MO    6     MO 0.0        OCC NO =    0.0000000  ORB. ENERGY =   -0.140189
 -0.19027881D-01 -0.35227407D-01 -0.57050340D-01 -0.73161817D-01 -0.66370142D-01
 -0.32246853D-02 -0.34290682D-01 -0.90648140D-01  0.11154323D-03  0.00000000D+00
  0.00000000D+00  0.00000000D+00  0.00000000D+00  0.00000000D+00  0.00000000D+00
 -0.00000000D+00 -0.00000000D+00 -0.00000000D+00  0.34268626D-03  0.00000000D+00
 -0.00000000D+00 -0.00000000D+00  0.14764939D+00 -0.00000000D+00  0.00000000D+00
  0.00000000D+00 -0.74770542D-01  0.00000000D+00 -0.00000000D+00 -0.00000000D+00
 -0.13090356D-01 -0.13090356D-01 -0.13090356D-01 -0.00000000D+00 -0.00000000D+00
 -0.00000000D+00
MO    7     MO 0.0        OCC NO =    0.0000000  ORB. ENERGY =   -0.071121
 -0.00000000D+00 -0.00000000D+00 -0.00000000D+00 -0.00000000D+00 -0.00000000D+00
 -0.00000000D+00 -0.00000000D+00 -0.00000000D+00  0.00000000D+00 -0.61177504D-01
 -0.52060256D-01 -0.40975941D-01 -0.33437400D-01 -0.28454244D-01 -0.22395960D-01
  0.18772703D+00  0.15975019D+00  0.12573726D+00 -0.00000000D+00 -0.99781163D-02
 -0.54536759D-02  0.30618481D-01  0.00000000D+00 -0.12027940D-01 -0.65740354D-02
  0.36908495D-01 -0.00000000D+00  0.22309777D-02  0.12193715D-02 -0.68458963D-02
 -0.00000000D+00  0.00000000D+00 -0.00000000D+00  0.00000000D+00 -0.00000000D+00
  0.00000000D+00
MO    8     MO 0.0        OCC NO =    0.0000000  ORB. ENERGY =   -0.071121
  0.00000000D+00  0.00000000D+00  0.00000000D+00  0.00000000D+00  0.00000000D+00
  0.00000000D+00  0.00000000D+00  0.00000000D+00 -0.00000000D+00  0.18648423D+00
  0.15869259D+00  0.12490485D+00 -0.51630555D-01 -0.43936084D-01 -0.34581512D-01
  0.51576203D-01  0.43889831D-01  0.34545107D-01  0.00000000D+00  0.30415778D-01
 -0.84209987D-02  0.84121334D-02 -0.00000000D+00  0.36664150D-01 -0.10150941D-01
  0.10140254D-01  0.00000000D+00 -0.68005746D-02  0.18828265D-02 -0.18808443D-02
 -0.00000000D+00  0.00000000D+00 -0.00000000D+00  0.00000000D+00 -0.00000000D+00
  0.00000000D+00
MO    9     MO 0.0        OCC NO =    0.0000000  ORB. ENERGY =   -0.071121
 -0.00000000D+00 -0.00000000D+00 -0.00000000D+00 -0.00000000D+00 -0.00000000D+00
 -0.00000000D+00 -0.00000000D+00 -0.00000000D+00  0.00000000D+00 -0.39788597D-01
 -0.33858925D-01 -0.26649914D-01 -0.19057390D+00 -0.16217279D+00 -0.12764406D+00
 -0.46911002D-01 -0.39919883D-01 -0.31420413D-01  0.00000000D+00 -0.64895625D-02
 -0.31082809D-01 -0.76512341D-02  0.00000000D+00 -0.78227259D-02 -0.37468209D-01
 -0.92230425D-02 -0.00000000D+00  0.14509823D-02  0.69497139D-02  0.17107171D-02
 -0.00000000D+00  0.00000000D+00  0.00000000D+00  0.00000000D+00  0.00000000D+00
  0.00000000D+00
MO   10     MO 0.0        OCC NO =    0.0000000  ORB. ENERGY =    0.156015
  0.00000000D+00  0.00000000D+00  0.00000000D+00  0.00000000D+00  0.00000000D+00
  0.00000000D+00  0.00000000D+00  0.00000000D+00 -0.00000000D+00 -0.16317382D-01
 -0.13885612D-01 -0.10929182D-01  0.41234146D-03  0.35089045D-03  0.27618125D-03
 -0.18311933D+00 -0.15582917D+00 -0.12265108D+00 -0.00000000D+00 -0.15610329D-01
  0.39447445D-03 -0.17518456D+00  0.00000000D+00  0.63614352D-02 -0.16075392D-03
  0.71390247D-01 -0.00000000D+00 -0.70899034D-03  0.17916184D-04 -0.79565374D-02
 -0.00000000D+00 -0.00000000D+00 -0.00000000D+00  0.00000000D+00  0.00000000D+00
 -0.00000000D+00
MO   11     MO 0.0        OCC NO =    0.0000000  ORB. ENERGY =    0.156015
 -0.00000000D+00 -0.00000000D+00 -0.00000000D+00 -0.00000000D+00 -0.00000000D+00
 -0.00000000D+00 -0.00000000D+00 -0.00000000D+00  0.00000000D+00 -0.99110113D-02
 -0.84339791D-02 -0.66382737D-02  0.18357344D+00  0.15621560D+00  0.12295524D+00
  0.12965147D-02  0.11032959D-02  0.86838965D-03  0.00000000D+00 -0.94815546D-02
  0.17561899D+00  0.12403339D-02 -0.00000000D+00  0.38638710D-02 -0.71567284D-01
 -0.50545385D-03  0.00000000D+00 -0.43063352D-03  0.79762683D-02  0.56333541D-04
 -0.00000000D+00  0.00000000D+00  0.00000000D+00  0.00000000D+00  0.00000000D+00
 -0.00000000D+00
MO   12     MO 0.0        OCC NO =    0.0000000  ORB. ENERGY =    0.156015
  0.00000000D+00  0.00000000D+00  0.00000000D+00  0.00000000D+00  0.00000000D+00
  0.00000000D+00  0.00000000D+00  0.00000000D+00 -0.00000000D+00 -0.18285140D+00
 -0.15560116D+00 -0.12247162D+00 -0.99869456D-02 -0.84985970D-02 -0.66891336D-02
  0.16271015D-01  0.13846155D-01  0.10898126D-01 -0.00000000D+00 -0.17492823D+00
 -0.95541979D-02  0.15565974D-01  0.00000000D+00  0.71285789D-01  0.38934739D-02
 -0.63433599D-02 -0.00000000D+00 -0.79448955D-02 -0.43393278D-03  0.70697580D-03
 -0.00000000D+00 -0.00000000D+00 -0.00000000D+00 -0.00000000D+00  0.00000000D+00
  0.00000000D+00
MO   13     MO 0.0        OCC NO =    0.0000000  ORB. ENERGY =    0.159103
 -0.49485884D-01 -0.91616057D-01 -0.14837104D+00 -0.19027223D+00 -0.17260909D+00
 -0.83864518D-02 -0.51026440D-01 -0.13488947D+00  0.16598253D-03 -0.00000000D+00
 -0.00000000D+00 -0.00000000D+00 -0.00000000D+00 -0.00000000D+00 -0.00000000D+00
 -0.00000000D+00 -0.00000000D+00 -0.00000000D+00  0.33682813D+00 -0.00000000D+00
 -0.00000000D+00 -0.00000000D+00 -0.25879827D+00  0.00000000D+00  0.00000000D+00
  0.00000000D+00  0.45642665D-01 -0.00000000D+00 -0.00000000D+00 -0.00000000D+00
  0.32811998D-01  0.32811998D-01  0.32811998D-01 -0.00000000D+00  0.00000000D+00
 -0.00000000D+00
MO   14     MO 0.0        OCC NO =    0.0000000  ORB. ENERGY =    0.498639
 -0.00000000D+00 -0.00000000D+00 -0.00000000D+00 -0.00000000D+00 -0.00000000D+00
 -0.00000000D+00 -0.00000000D+00 -0.00000000D+00  0.00000000D+00  0.00000000D+00
  0.00000000D+00  0.00000000D+00 -0.00000000D+00 -0.00000000D+00 -0.00000000D+00
 -0.00000000D+00 -0.00000000D+00 -0.00000000D+00  0.00000000D+00 -0.00000000D+00
  0.00000000D+00 -0.00000000D+00 -0.00000000D+00 -0.00000000D+00 -0.00000000D+00
  0.00000000D+00  0.00000000D+00 -0.00000000D+00  0.00000000D+00 -0.00000000D+00
 -0.21005864D-02  0.17907870D-02  0.30979943D-03 -0.86339510D-01 -0.39708389D-02
  0.24609898D+00
MO   15     MO 0.0        OCC NO =    0.0000000  ORB. ENERGY =    0.498639
 -0.00000000D+00 -0.00000000D+00 -0.00000000D+00 -0.00000000D+00 -0.00000000D+00
 -0.00000000D+00  0.00000000D+00  0.00000000D+00 -0.00000000D+00  0.00000000D+00
  0.00000000D+00  0.00000000D+00 -0.00000000D+00 -0.00000000D+00 -0.00000000D+00
 -0.00000000D+00 -0.00000000D+00 -0.00000000D+00 -0.00000000D+00 -0.00000000D+00
  0.00000000D+00  0.00000000D+00  0.00000000D+00  0.00000000D+00 -0.00000000D+00
 -0.00000000D+00 -0.00000000D+00 -0.00000000D+00 -0.00000000D+00  0.00000000D+00
 -0.22632215D-04  0.26088639D-01 -0.26066007D-01 -0.23938211D+00  0.31725317D-01
 -0.83785558D-01
MO   16     MO 0.0        OCC NO =    0.0000000  ORB. ENERGY =    0.498639
 -0.00000000D+00 -0.00000000D+00 -0.00000000D+00 -0.00000000D+00 -0.00000000D+00
 -0.00000000D+00  0.00000000D+00  0.00000000D+00 -0.00000000D+00  0.00000000D+00
  0.00000000D+00  0.00000000D+00  0.00000000D+00  0.00000000D+00  0.00000000D+00
  0.00000000D+00  0.00000000D+00  0.00000000D+00  0.00000000D+00  0.00000000D+00
 -0.00000000D+00  0.00000000D+00  0.00000000D+00 -0.00000000D+00 -0.00000000D+00
 -0.00000000D+00 -0.00000000D+00  0.00000000D+00  0.00000000D+00  0.00000000D+00
  0.40419351D-01  0.32187007D-01 -0.72606358D-01  0.45393832D-01  0.22295716D+00
  0.19927443D-01
MO   17     MO 0.0        OCC NO =    0.0000000  ORB. ENERGY =    0.498639
 -0.00000000D+00 -0.00000000D+00 -0.00000000D+00 -0.00000000D+00 -0.00000000D+00
 -0.00000000D+00 -0.00000000D+00 -0.00000000D+00  0.00000000D+00 -0.00000000D+00
 -0.00000000D+00 -0.00000000D+00 -0.00000000D+00 -0.00000000D+00 -0.00000000D+00
 -0.00000000D+00 -0.00000000D+00 -0.00000000D+00  0.00000000D+00  0.00000000D+00
 -0.00000000D+00 -0.00000000D+00 -0.00000000D+00  0.00000000D+00  0.00000000D+00
  0.00000000D+00 -0.00000000D+00 -0.00000000D+00 -0.00000000D+00 -0.00000000D+00
  0.53599974D-01  0.75274209D-01 -0.12887418D+00  0.24779840D-01 -0.13075044D+00
  0.67278741D-02
MO   18     MO 0.0        OCC NO =    0.0000000  ORB. ENERGY =    0.498639
  0.00000000D+00  0.00000000D+00  0.00000000D+00  0.00000000D+00  0.00000000D+00
  0.00000000D+00 -0.00000000D+00 -0.00000000D+00  0.00000000D+00 -0.00000000D+00
 -0.00000000D+00 -0.00000000D+00  0.00000000D+00  0.00000000D+00  0.00000000D+00
  0.00000000D+00  0.00000000D+00  0.00000000D+00  0.00000000D+00  0.00000000D+00
  0.00000000D+00 -0.00000000D+00  0.00000000D+00 -0.00000000D+00 -0.00000000D+00
  0.00000000D+00 -0.00000000D+00  0.00000000D+00  0.00000000D+00 -0.00000000D+00
  0.13480496D+00 -0.12368281D+00 -0.11122150D-01 -0.24849006D-01 -0.14919233D-01
 -0.48292900D-02
MO   19     MO 0.0        OCC NO =    0.0000000  ORB. ENERGY =    0.914929
  0.00000000D+00  0.00000000D+00  0.00000000D+00  0.00000000D+00  0.00000000D+00
  0.00000000D+00 -0.00000000D+00 -0.00000000D+00  0.00000000D+00 -0.40478247D-01
 -0.34445798D-01 -0.27111833D-01  0.25078298D+00  0.21340894D+00  0.16797136D+00
 -0.97671740D+00 -0.83115778D+00 -0.65419333D+00 -0.00000000D+00  0.10769784D-01
 -0.66724195D-01  0.25986885D+00  0.00000000D+00 -0.17821391D-02  0.11041242D-01
 -0.43002013D-01 -0.00000000D+00  0.17160699D-03 -0.10631912D-02  0.41407805D-02
 -0.00000000D+00 -0.00000000D+00 -0.00000000D+00  0.00000000D+00 -0.00000000D+00
 -0.00000000D+00
MO   20     MO 0.0        OCC NO =    0.0000000  ORB. ENERGY =    0.914929
  0.00000000D+00  0.00000000D+00  0.00000000D+00  0.00000000D+00  0.00000000D+00
  0.00000000D+00  0.00000000D+00  0.00000000D+00 -0.00000000D+00 -0.20035176D-01
 -0.17049346D-01 -0.13419315D-01  0.97711101D+00  0.83149274D+00  0.65445697D+00
  0.25171436D+00  0.21420152D+00  0.16859519D+00 -0.00000000D+00  0.53306290D-02
 -0.25997357D+00 -0.66972004D-01 -0.00000000D+00 -0.88209012D-03  0.43019343D-01
  0.11082248D-01  0.00000000D+00  0.84938866D-04 -0.41424492D-02 -0.10671397D-02
  0.00000000D+00  0.00000000D+00  0.00000000D+00 -0.00000000D+00 -0.00000000D+00
  0.00000000D+00
MO   21     MO 0.0        OCC NO =    0.0000000  ORB. ENERGY =    0.914929
 -0.00000000D+00 -0.00000000D+00 -0.00000000D+00 -0.00000000D+00 -0.00000000D+00
 -0.00000000D+00 -0.00000000D+00 -0.00000000D+00  0.00000000D+00  0.10082002D+01
  0.85794869D+00  0.67528010D+00  0.29486055D-01  0.25091765D-01  0.19749398D-01
 -0.34212126D-01 -0.29113513D-01 -0.22914862D-01  0.00000000D+00 -0.26824526D+00
 -0.78451637D-02  0.91025979D-02  0.00000000D+00  0.44388107D-01  0.12981848D-02
 -0.15062598D-02 -0.00000000D+00 -0.42742512D-02 -0.12500579D-03  0.14504183D-03
  0.00000000D+00 -0.00000000D+00 -0.00000000D+00  0.00000000D+00 -0.00000000D+00
 -0.00000000D+00
MO   22     MO 0.0        OCC NO =    0.0000000  ORB. ENERGY =    1.165580
  0.81436829D-01  0.15076868D+00  0.24416796D+00  0.31312296D+00  0.28405549D+00
  0.13801230D-01  0.26429260D+00  0.69866304D+00 -0.85971024D-03  0.00000000D+00
  0.00000000D+00  0.00000000D+00 -0.00000000D+00 -0.00000000D+00 -0.00000000D+00
  0.00000000D+00  0.00000000D+00  0.00000000D+00 -0.51758614D+00 -0.00000000D+00
  0.00000000D+00 -0.00000000D+00 -0.12049439D+00  0.00000000D+00 -0.00000000D+00
  0.00000000D+00  0.19621106D-01 -0.00000000D+00  0.00000000D+00 -0.00000000D+00
  0.25178477D+00  0.25178477D+00  0.25178477D+00  0.00000000D+00 -0.00000000D+00
  0.00000000D+00
MO   23     MO 0.0        OCC NO =    0.0000000  ORB. ENERGY =    9.318670
 -0.82004080D+00 -0.15181886D+01 -0.24586872D+01 -0.31530404D+01 -0.28603409D+01
 -0.13897363D+00  0.97812213D+00  0.25856864D+01 -0.31817070D-02  0.00000000D+00
  0.00000000D+00  0.00000000D+00 -0.00000000D+00 -0.00000000D+00 -0.00000000D+00
 -0.00000000D+00 -0.00000000D+00 -0.00000000D+00 -0.37998069D+00  0.00000000D+00
 -0.00000000D+00  0.00000000D+00 -0.32089983D-01  0.00000000D+00 -0.00000000D+00
 -0.00000000D+00  0.59294362D-02  0.00000000D+00 -0.00000000D+00  0.00000000D+00
  0.13473976D+00  0.13473976D+00  0.13473976D+00 -0.00000000D+00  0.00000000D+00
 -0.00000000D+00
END DATA
 THE  HF ENERGY =    -14.688838029497 THE VIRIAL(-V/T)=   2.01378941


 $MOSPIN $END
 3 3 3 3 3 3 3 3 3 3 3 3 3 3 3 3 3 3 3 3 3 3 3


