[Molden Format]
[Title]
 Molden2AIM, Version 3.1.0 (02/25/2015)           Time: Mon Dec  2 17:41:10 2024

[Atoms] AU
BE       1       4     0.00000000     0.00000000     0.00000000
[GTO]
    1 0
 S   6 1.0
    0.1682800000D+04      0.2285740532D-02
    0.2517150000D+03      0.1759380410D-01
    0.5741160000D+02      0.8633152009D-01
    0.1651710000D+02      0.2818350656D+00
    0.4853640000D+01      0.6405941491D+00
    0.6268630000D+00      0.1444670336D+00
 S   3 1.0
    0.8309380000D+01      0.1086210323D+00
    0.1740750000D+01      0.9273012759D+00
    0.4858160000D+00     -0.2971690884D-02
 P   3 1.0
    0.8309380000D+01      0.3613440323D-01
    0.1740750000D+01      0.2169580194D+00
    0.4858160000D+00      0.8418390753D+00
 S   1 1.0
    0.1636130000D+00      0.1000000000D+01
 P   1 1.0
    0.1636130000D+00      0.1000000000D+01
 S   1 1.0
    0.5672850000D-01      0.1000000000D+01
 P   1 1.0
    0.5672850000D-01      0.1000000000D+01
 S   1 1.0
    0.2070000000D-01      0.1000000000D+01
 P   1 1.0
    0.2070000000D-01      0.1000000000D+01
 D   1 1.0
    0.2550000000D+00      0.1000000000D+01


[MO]
 Ene=         -4.13168000
 Spin= Alpha
 Occup=        2.00000000
    1        0.5961396300
    2        0.4351405200
    3        0.0000000000
    4        0.0000000000
    5       -0.0000000000
    6        0.0338269400
    7        0.0000000000
    8       -0.0000000000
    9       -0.0000000000
   10        0.0026114200
   11        0.0000000000
   12        0.0000000000
   13        0.0000000000
   14       -0.0012888800
   15        0.0000000000
   16       -0.0000000000
   17       -0.0000000000
   18       -0.0121504000
   19       -0.0121504000
   20       -0.0121504000
   21       -0.0000000000
   22       -0.0000000000
   23       -0.0000000000
 Ene=         -0.26142400
 Spin= Alpha
 Occup=        2.00000000
    1        0.1193281300
    2        0.1802254700
    3       -0.0000000000
    4        0.0000000000
    5        0.0000000000
    6       -0.6399690800
    7       -0.0000000000
    8        0.0000000000
    9        0.0000000000
   10       -0.2405725300
   11        0.0000000000
   12        0.0000000000
   13        0.0000000000
   14       -0.2970795200
   15       -0.0000000000
   16        0.0000000000
   17       -0.0000000000
   18        0.0064652500
   19        0.0064652500
   20        0.0064652500
   21        0.0000000000
   22       -0.0000000000
   23        0.0000000000
 Ene=         -0.16236900
 Spin= Alpha
 Occup=        0.00000000
    1       -0.0000000000
    2       -0.0000000000
    3       -0.0145225000
    4       -0.0014342800
    5       -0.0030534700
    6        0.0000000000
    7       -0.2267752400
    8       -0.0223970000
    9       -0.0476813100
   10        0.0000000000
   11        0.5942759800
   12        0.0586924700
   13        0.1249512900
   14       -0.0000000000
   15       -1.2977527600
   16       -0.1281699400
   17       -0.2728629200
   18       -0.0000000000
   19        0.0000000000
   20       -0.0000000000
   21        0.0000000000
   22       -0.0000000000
   23       -0.0000000000
 Ene=         -0.16236900
 Spin= Alpha
 Occup=        0.00000000
    1       -0.0000000000
    2       -0.0000000000
    3       -0.0032103200
    4        0.0100223700
    5        0.0105607600
    6        0.0000000000
    7       -0.0501306400
    8        0.1565037600
    9        0.1649109900
   10        0.0000000000
   11        0.1313698700
   12       -0.4101260200
   13       -0.4321575800
   14       -0.0000000000
   15       -0.2868795200
   16        0.8956144900
   17        0.9437260000
   18       -0.0000000000
   19       -0.0000000000
   20       -0.0000000000
   21        0.0000000000
   22        0.0000000000
   23        0.0000000000
 Ene=         -0.16236900
 Spin= Alpha
 Occup=        0.00000000
    1       -0.0000000000
    2       -0.0000000000
    3       -0.0010366700
    4       -0.0109443400
    5        0.0100712600
    6        0.0000000000
    7       -0.0161880300
    8       -0.1709008100
    9        0.1572672900
   10        0.0000000000
   11        0.0424215600
   12        0.4478542300
   13       -0.4121268900
   14       -0.0000000000
   15       -0.0926382700
   16       -0.9780036200
   17        0.8999838900
   18        0.0000000000
   19       -0.0000000000
   20       -0.0000000000
   21       -0.0000000000
   22        0.0000000000
   23        0.0000000000
 Ene=         -0.14018900
 Spin= Alpha
 Occup=        0.00000000
    1       -0.0444558600
    2       -0.0905056400
    3        0.0000000000
    4        0.0000000000
    5       -0.0000000000
    6        0.0018690600
    7        0.0000000000
    8       -0.0000000000
    9       -0.0000000000
   10        1.7822580400
   11       -0.0000000000
   12        0.0000000000
   13        0.0000000000
   14       -1.9223952100
   15        0.0000000000
   16       -0.0000000000
   17       -0.0000000000
   18       -0.0869153900
   19       -0.0869153900
   20       -0.0869153900
   21       -0.0000000000
   22       -0.0000000000
   23       -0.0000000000
 Ene=         -0.07112060
 Spin= Alpha
 Occup=        0.00000000
    1       -0.0000000000
    2       -0.0000000000
    3       -0.0841918400
    4       -0.0460162000
    5        0.2583479800
    6       -0.0000000000
    7       -0.0672722900
    8       -0.0367685900
    9        0.2064292800
   10        0.0000000000
   11       -0.3047891700
   12       -0.1665867000
   13        0.9352648700
   14       -0.0000000000
   15        0.1993389700
   16        0.1089514500
   17       -0.6116842500
   18       -0.0000000000
   19        0.0000000000
   20       -0.0000000000
   21        0.0000000000
   22       -0.0000000000
   23        0.0000000000
 Ene=         -0.07112060
 Spin= Alpha
 Occup=        0.00000000
    1        0.0000000000
    2        0.0000000000
    3        0.2566376400
    4       -0.0710534300
    5        0.0709786300
    6        0.0000000000
    7        0.2050626600
    8       -0.0567742300
    9        0.0567144600
   10       -0.0000000000
   11        0.9290731500
   12       -0.2572258500
   13        0.2569550400
   14        0.0000000000
   15       -0.6076347300
   16        0.1682314900
   17       -0.1680543800
   18       -0.0000000000
   19        0.0000000000
   20       -0.0000000000
   21        0.0000000000
   22       -0.0000000000
   23        0.0000000000
 Ene=         -0.07112060
 Spin= Alpha
 Occup=        0.00000000
    1       -0.0000000000
    2       -0.0000000000
    3       -0.0547566500
    4       -0.2622658100
    5       -0.0645584300
    6        0.0000000000
    7       -0.0437525200
    8       -0.2095597700
    9       -0.0515844900
   10        0.0000000000
   11       -0.1982286400
   12       -0.9494480900
   13       -0.2337128000
   14       -0.0000000000
   15        0.1296459900
   16        0.6209604000
   17        0.1528534300
   18       -0.0000000000
   19        0.0000000000
   20        0.0000000000
   21        0.0000000000
   22        0.0000000000
   23        0.0000000000
 Ene=          0.15601500
 Spin= Alpha
 Occup=        0.00000000
    1        0.0000000000
    2        0.0000000000
    3       -0.0224558100
    4        0.0005674600
    5       -0.2520069100
    6       -0.0000000000
    7       -0.1052445700
    8        0.0026595400
    9       -1.1810913200
   10        0.0000000000
   11        0.1611993900
   12       -0.0040735200
   13        1.8090358500
   14       -0.0000000000
   15       -0.0633486400
   16        0.0016008200
   17       -0.7109205800
   18       -0.0000000000
   19       -0.0000000000
   20       -0.0000000000
   21        0.0000000000
   22        0.0000000000
   23       -0.0000000000
 Ene=          0.15601500
 Spin= Alpha
 Occup=        0.00000000
    1       -0.0000000000
    2       -0.0000000000
    3       -0.0136394300
    4        0.2526318500
    5        0.0017842500
    6        0.0000000000
    7       -0.0639244800
    8        1.1840202400
    9        0.0083623100
   10       -0.0000000000
   11        0.0979108700
   12       -1.8135219700
   13       -0.0128082500
   14        0.0000000000
   15       -0.0384773200
   16        0.7126835500
   17        0.0050334300
   18       -0.0000000000
   19        0.0000000000
   20        0.0000000000
   21        0.0000000000
   22        0.0000000000
   23       -0.0000000000
 Ene=          0.15601500
 Spin= Alpha
 Occup=        0.00000000
    1        0.0000000000
    2        0.0000000000
    3       -0.2516381800
    4       -0.0137439300
    5        0.0223920000
    6       -0.0000000000
    7       -1.1793631500
    8       -0.0644142400
    9        0.1049455300
   10        0.0000000000
   11        1.8063888700
   12        0.0986610100
   13       -0.1607413600
   14       -0.0000000000
   15       -0.7098803700
   16       -0.0387721100
   17        0.0631686400
   18       -0.0000000000
   19       -0.0000000000
   20       -0.0000000000
   21       -0.0000000000
   22        0.0000000000
   23        0.0000000000
 Ene=          0.15910300
 Spin= Alpha
 Occup=        0.00000000
    1       -0.1156165300
    2       -0.1346774200
    3       -0.0000000000
    4       -0.0000000000
    5       -0.0000000000
    6        1.8371089200
    7       -0.0000000000
    8       -0.0000000000
    9       -0.0000000000
   10       -3.1239228300
   11        0.0000000000
   12        0.0000000000
   13        0.0000000000
   14        1.1735001300
   15       -0.0000000000
   16       -0.0000000000
   17       -0.0000000000
   18        0.2178602000
   19        0.2178602000
   20        0.2178602000
   21       -0.0000000000
   22        0.0000000000
   23       -0.0000000000
 Ene=          0.49863900
 Spin= Alpha
 Occup=        0.00000000
    1       -0.0000000000
    2       -0.0000000000
    3        0.0000000000
    4       -0.0000000000
    5       -0.0000000000
    6        0.0000000000
    7       -0.0000000000
    8        0.0000000000
    9       -0.0000000000
   10       -0.0000000000
   11       -0.0000000000
   12       -0.0000000000
   13        0.0000000000
   14        0.0000000000
   15       -0.0000000000
   16        0.0000000000
   17       -0.0000000000
   18       -0.0139471600
   19        0.0118902000
   20        0.0020569600
   21       -0.3309742300
   22       -0.0152218300
   23        0.9433968400
 Ene=          0.49863900
 Spin= Alpha
 Occup=        0.00000000
    1       -0.0000000000
    2        0.0000000000
    3        0.0000000000
    4       -0.0000000000
    5       -0.0000000000
    6       -0.0000000000
    7       -0.0000000000
    8        0.0000000000
    9        0.0000000000
   10        0.0000000000
   11        0.0000000000
   12       -0.0000000000
   13       -0.0000000000
   14       -0.0000000000
   15       -0.0000000000
   16       -0.0000000000
   17        0.0000000000
   18       -0.0001502700
   19        0.1732194500
   20       -0.1730691800
   21       -0.9176483500
   22        0.1216159600
   23       -0.3211839000
 Ene=          0.49863900
 Spin= Alpha
 Occup=        0.00000000
    1       -0.0000000000
    2        0.0000000000
    3        0.0000000000
    4        0.0000000000
    5        0.0000000000
    6        0.0000000000
    7        0.0000000000
    8       -0.0000000000
    9        0.0000000000
   10        0.0000000000
   11       -0.0000000000
   12       -0.0000000000
   13       -0.0000000000
   14       -0.0000000000
   15        0.0000000000
   16        0.0000000000
   17        0.0000000000
   18        0.2683703700
   19        0.2137104800
   20       -0.4820808500
   21        0.1740129000
   22        0.8546848800
   23        0.0763899400
 Ene=          0.49863900
 Spin= Alpha
 Occup=        0.00000000
    1       -0.0000000000
    2       -0.0000000000
    3       -0.0000000000
    4       -0.0000000000
    5       -0.0000000000
    6        0.0000000000
    7        0.0000000000
    8       -0.0000000000
    9       -0.0000000000
   10       -0.0000000000
   11        0.0000000000
   12        0.0000000000
   13        0.0000000000
   14       -0.0000000000
   15       -0.0000000000
   16       -0.0000000000
   17       -0.0000000000
   18        0.3558851000
   19        0.4997944500
   20       -0.8556795400
   21        0.0949911400
   22       -0.5012192600
   23        0.0257906600
 Ene=          0.49863900
 Spin= Alpha
 Occup=        0.00000000
    1        0.0000000000
    2       -0.0000000000
    3       -0.0000000000
    4        0.0000000000
    5        0.0000000000
    6        0.0000000000
    7        0.0000000000
    8        0.0000000000
    9       -0.0000000000
   10        0.0000000000
   11       -0.0000000000
   12       -0.0000000000
   13        0.0000000000
   14       -0.0000000000
   15        0.0000000000
   16        0.0000000000
   17       -0.0000000000
   18        0.8950578700
   19       -0.8212106800
   20       -0.0738471900
   21       -0.0952562800
   22       -0.0571914500
   23       -0.0185126200
 Ene=          0.91492900
 Spin= Alpha
 Occup=        0.00000000
    1        0.0000000000
    2       -0.0000000000
    3       -0.0557057400
    4        0.3451249100
    5       -1.3441482600
    6       -0.0000000000
    7        0.0726097000
    8       -0.4498533900
    9        1.7520313400
   10        0.0000000000
   11       -0.0451595800
   12        0.2797861400
   13       -1.0896752200
   14       -0.0000000000
   15        0.0153331700
   16       -0.0949966600
   17        0.3699808000
   18       -0.0000000000
   19       -0.0000000000
   20       -0.0000000000
   21        0.0000000000
   22       -0.0000000000
   23       -0.0000000000
 Ene=          0.91492900
 Spin= Alpha
 Occup=        0.00000000
    1        0.0000000000
    2        0.0000000000
    3       -0.0275722000
    4        1.3446899500
    5        0.3464066700
    6       -0.0000000000
    7        0.0359390100
    8       -1.7527374100
    9       -0.4515241100
   10       -0.0000000000
   11       -0.0223522500
   12        1.0901143600
   13        0.2808252400
   14        0.0000000000
   15        0.0075893300
   16       -0.3701299000
   17       -0.0953494600
   18        0.0000000000
   19        0.0000000000
   20        0.0000000000
   21       -0.0000000000
   22       -0.0000000000
   23        0.0000000000
 Ene=          0.91492900
 Spin= Alpha
 Occup=        0.00000000
    1       -0.0000000000
    2       -0.0000000000
    3        1.3874745100
    4        0.0405784000
    5       -0.0470823700
    6        0.0000000000
    7       -1.8085049800
    8       -0.0528919600
    9        0.0613695600
   10        0.0000000000
   11        1.1247989800
   12        0.0328961300
   13       -0.0381687700
   14       -0.0000000000
   15       -0.3819064800
   16       -0.0111693300
   17        0.0129595600
   18        0.0000000000
   19       -0.0000000000
   20       -0.0000000000
   21        0.0000000000
   22       -0.0000000000
   23       -0.0000000000
 Ene=          1.16558000
 Spin= Alpha
 Occup=        0.00000000
    1        0.1902652400
    2        0.6975647300
    3        0.0000000000
    4       -0.0000000000
    5        0.0000000000
    6       -2.8229890400
    7       -0.0000000000
    8        0.0000000000
    9       -0.0000000000
   10       -1.4544732900
   11        0.0000000000
   12       -0.0000000000
   13        0.0000000000
   14        0.5044703400
   15       -0.0000000000
   16        0.0000000000
   17       -0.0000000000
   18        1.6717629000
   19        1.6717629000
   20        1.6717629000
   21        0.0000000000
   22       -0.0000000000
   23        0.0000000000
 Ene=          9.31867000
 Spin= Alpha
 Occup=        0.00000000
    1       -1.9159054000
    2        2.5816216900
    3        0.0000000000
    4       -0.0000000000
    5       -0.0000000000
    6       -2.0724691500
    7        0.0000000000
    8       -0.0000000000
    9        0.0000000000
   10       -0.3873543300
   11        0.0000000000
   12       -0.0000000000
   13       -0.0000000000
   14        0.1524493400
   15        0.0000000000
   16       -0.0000000000
   17        0.0000000000
   18        0.8946249500
   19        0.8946249500
   20        0.8946249500
   21       -0.0000000000
   22        0.0000000000
   23       -0.0000000000

