[Molden Format]
[Atoms] AU
E+       1       4     0.00000000     0.00000000     0.00000000
[GTO]
  1 0
s  1 1.00
   1.0000000000E-04   1.0000000000E+00
s  1 1.00
   3.0000000000E-04   1.0000000000E+00
s  1 1.00
   9.0000000000E-04   1.0000000000E+00
s  1 1.00
   2.7000000000E-03   1.0000000000E+00
s  1 1.00
   8.1000000000E-03   1.0000000000E+00
s  1 1.00
   2.4300000000E-02   1.0000000000E+00
s  1 1.00
   7.2900000000E-02   1.0000000000E+00
s  1 1.00
   2.1870000000E-01   1.0000000000E+00
s  1 1.00
   6.5610000000E-01   1.0000000000E+00
s  1 1.00
   1.9683000000E+00   1.0000000000E+00
p  1 1.00
   1.0000000000E-04   1.0000000000E+00
p  1 1.00
   3.0000000000E-04   1.0000000000E+00
p  1 1.00
   9.0000000000E-04   1.0000000000E+00
p  1 1.00
   2.7000000000E-03   1.0000000000E+00
d  1 1.00
   1.0000000000E-04   1.0000000000E+00
d  1 1.00
   3.0000000000E-04   1.0000000000E+00
 
 
[MO]
Ene=    -3.91962E-03
Spin= Alpha
Occup=   1.0000000000
   1      -0.05521793
   2      -0.03533082
   3      -0.03741864
   4      -0.36582174
   5      -0.33186245
   6      -0.42074758
   7       0.02026529
   8       0.07632757
   9       0.00429349
  10       0.00273473
  11      -0.00000000
  12       0.00000000
  13       0.00000000
  14       0.00000000
  15      -0.00000000
  16       0.00000000
  17      -0.00000000
  18       0.00000000
  19       0.00000000
  20       0.00000000
  21      -0.00000000
  22      -0.00000000
  23       0.00829664
  24       0.00829664
  25       0.00829664
  26      -0.00000000
  27      -0.00000000
  28       0.00000000
  29       0.02294728
  30       0.02294728
  31       0.02294728
  32      -0.00000000
  33       0.00000000
  34      -0.00000000
Ene=     8.42983E-05
Spin= Alpha
Occup=   0.0000000000
   1       2.19208044
   2      -0.73033187
   3      -0.19060948
   4       0.06143085
   5       0.00233113
   6       0.01681368
   7      -0.00148814
   8      -0.00225672
   9      -0.00020528
  10      -0.00007780
  11       0.00000000
  12      -0.00000000
  13       0.00000000
  14      -0.00000000
  15       0.00000000
  16       0.00000000
  17       0.00000000
  18      -0.00000000
  19      -0.00000000
  20       0.00000000
  21       0.00000000
  22       0.00000000
  23      -0.85062642
  24      -0.85062642
  25      -0.85062642
  26       0.00000000
  27      -0.00000000
  28      -0.00000000
  29      -0.39806071
  30      -0.39806071
  31      -0.39806071
  32       0.00000000
  33      -0.00000000
  34      -0.00000000
Ene=     2.25577E-04
Spin= Alpha
Occup=   0.0000000000
   1      -0.00000000
   2       0.00000000
   3      -0.00000000
   4       0.00000000
   5      -0.00000000
   6       0.00000000
   7      -0.00000000
   8       0.00000000
   9      -0.00000000
  10      -0.00000000
  11       1.18649581
  12      -0.02444236
  13       0.00062776
  14      -0.32211661
  15       0.00663575
  16      -0.00017043
  17       0.07973735
  18      -0.00164263
  19       0.00004219
  20      -0.01485443
  21       0.00030601
  22      -0.00000786
  23       0.00000000
  24      -0.00000000
  25       0.00000000
  26      -0.00000000
  27      -0.00000000
  28       0.00000000
  29      -0.00000000
  30       0.00000000
  31      -0.00000000
  32       0.00000000
  33       0.00000000
  34      -0.00000000
Ene=     2.25577E-04
Spin= Alpha
Occup=   0.0000000000
   1       0.00000000
   2      -0.00000000
   3      -0.00000000
   4      -0.00000000
   5       0.00000000
   6      -0.00000000
   7       0.00000000
   8       0.00000000
   9      -0.00000000
  10       0.00000000
  11       0.02445037
  12       1.18603843
  13      -0.03294160
  14      -0.00663792
  15      -0.32199244
  16       0.00894317
  17       0.00164316
  18       0.07970661
  19      -0.00221381
  20      -0.00030611
  21      -0.01484870
  22       0.00041242
  23      -0.00000000
  24       0.00000000
  25      -0.00000000
  26       0.00000000
  27      -0.00000000
  28      -0.00000000
  29      -0.00000000
  30      -0.00000000
  31      -0.00000000
  32      -0.00000000
  33      -0.00000000
  34       0.00000000
Ene=     2.25577E-04
Spin= Alpha
Occup=   0.0000000000
   1      -0.00000000
   2       0.00000000
   3       0.00000000
   4       0.00000000
   5       0.00000000
   6       0.00000000
   7      -0.00000000
   8      -0.00000000
   9       0.00000000
  10      -0.00000000
  11       0.00005109
  12       0.03294755
  13       1.18629026
  14      -0.00001387
  15      -0.00894479
  16      -0.32206080
  17       0.00000343
  18       0.00221421
  19       0.07972353
  20      -0.00000064
  21      -0.00041249
  22      -0.01485186
  23       0.00000000
  24       0.00000000
  25       0.00000000
  26      -0.00000000
  27       0.00000000
  28      -0.00000000
  29       0.00000000
  30       0.00000000
  31       0.00000000
  32       0.00000000
  33       0.00000000
  34      -0.00000000
Ene=     3.30850E-04
Spin= Alpha
Occup=   0.0000000000
   1       0.00000000
   2      -0.00000000
   3      -0.00000000
   4       0.00000000
   5      -0.00000000
   6      -0.00000000
   7      -0.00000000
   8       0.00000000
   9       0.00000000
  10       0.00000000
  11       0.00000000
  12       0.00000000
  13       0.00000000
  14      -0.00000000
  15      -0.00000000
  16      -0.00000000
  17      -0.00000000
  18       0.00000000
  19       0.00000000
  20       0.00000000
  21      -0.00000000
  22       0.00000000
  23      -0.98424147
  24       0.07219023
  25       0.91205125
  26      -0.01588339
  27       0.04053977
  28      -0.00184811
  29       0.16061225
  30      -0.01178027
  31      -0.14883197
  32       0.00259191
  33      -0.00661543
  34       0.00030158
Ene=     3.30850E-04
Spin= Alpha
Occup=   0.0000000000
   1      -0.00000000
   2       0.00000000
   3       0.00000000
   4      -0.00000000
   5       0.00000000
   6      -0.00000000
   7       0.00000000
   8      -0.00000000
   9       0.00000000
  10      -0.00000000
  11      -0.00000000
  12       0.00000000
  13      -0.00000000
  14      -0.00000000
  15      -0.00000000
  16       0.00000000
  17       0.00000000
  18       0.00000000
  19      -0.00000000
  20      -0.00000000
  21      -0.00000000
  22       0.00000000
  23       0.48459652
  24      -1.09424660
  25       0.60965008
  26       0.04082860
  27       0.01304966
  28      -0.03642716
  29      -0.07907829
  30       0.17856330
  31      -0.09948501
  32      -0.00666256
  33      -0.00212949
  34       0.00594432
Ene=     3.30850E-04
Spin= Alpha
Occup=   0.0000000000
   1       0.00000000
   2      -0.00000000
   3      -0.00000000
   4       0.00000000
   5      -0.00000000
   6      -0.00000000
   7      -0.00000000
   8       0.00000000
   9      -0.00000000
  10       0.00000000
  11      -0.00000000
  12       0.00000000
  13      -0.00000000
  14      -0.00000000
  15      -0.00000000
  16       0.00000000
  17       0.00000000
  18       0.00000000
  19       0.00000000
  20      -0.00000000
  21      -0.00000000
  22      -0.00000000
  23       0.03508966
  24      -0.02157078
  25      -0.01351888
  26      -0.10667414
  27       0.78896079
  28       0.75542123
  29      -0.00572606
  30       0.00352000
  31       0.00220606
  32       0.01740749
  33      -0.12874561
  34      -0.12327249
Ene=     3.30850E-04
Spin= Alpha
Occup=   0.0000000000
   1      -0.00000000
   2       0.00000000
   3      -0.00000000
   4       0.00000000
   5       0.00000000
   6       0.00000000
   7      -0.00000000
   8      -0.00000000
   9       0.00000000
  10      -0.00000000
  11       0.00000000
  12      -0.00000000
  13       0.00000000
  14      -0.00000000
  15       0.00000000
  16      -0.00000000
  17       0.00000000
  18      -0.00000000
  19      -0.00000000
  20      -0.00000000
  21       0.00000000
  22      -0.00000000
  23      -0.02687382
  24       0.04475415
  25      -0.01788033
  26       1.07741451
  27       0.19970170
  28      -0.05495404
  29       0.00438537
  30      -0.00730315
  31       0.00291778
  32      -0.17581657
  33      -0.03258808
  34       0.00896761
Ene=     3.30850E-04
Spin= Alpha
Occup=   0.0000000000
   1      -0.00000000
   2       0.00000000
   3       0.00000000
   4      -0.00000000
   5       0.00000000
   6      -0.00000000
   7       0.00000000
   8      -0.00000000
   9      -0.00000000
  10       0.00000000
  11      -0.00000000
  12      -0.00000000
  13       0.00000000
  14       0.00000000
  15       0.00000000
  16      -0.00000000
  17      -0.00000000
  18      -0.00000000
  19      -0.00000000
  20       0.00000000
  21       0.00000000
  22       0.00000000
  23      -0.01529958
  24      -0.02640725
  25       0.04170684
  26       0.17785382
  27      -0.73593407
  28       0.79419211
  29       0.00249664
  30       0.00430924
  31      -0.00680588
  32      -0.02902286
  33       0.12009251
  34      -0.12959927
Ene=     3.61079E-04
Spin= Alpha
Occup=   0.0000000000
   1      -7.15265198
   2       1.98522898
   3       0.56644915
   4      -0.04368578
   5       0.05176003
   6       0.02243894
   7       0.00078977
   8      -0.00594797
   9      -0.00015046
  10      -0.00021782
  11      -0.00000000
  12       0.00000000
  13      -0.00000000
  14       0.00000000
  15      -0.00000000
  16      -0.00000000
  17      -0.00000000
  18      -0.00000000
  19       0.00000000
  20       0.00000000
  21       0.00000000
  22      -0.00000000
  23       1.57636383
  24       1.57636383
  25       1.57636383
  26      -0.00000000
  27       0.00000000
  28       0.00000000
  29       0.95115619
  30       0.95115619
  31       0.95115619
  32       0.00000000
  33      -0.00000000
  34      -0.00000000
Ene=     9.33897E-04
Spin= Alpha
Occup=   0.0000000000
   1       0.00000000
   2      -0.00000000
   3      -0.00000000
   4       0.00000000
   5       0.00000000
   6       0.00000000
   7      -0.00000000
   8       0.00000000
   9      -0.00000000
  10       0.00000000
  11       0.87980669
  12      -0.00073539
  13      -0.00389603
  14      -1.65010006
  15       0.00137924
  16       0.00730710
  17       0.33484694
  18      -0.00027988
  19      -0.00148280
  20      -0.06596395
  21       0.00005514
  22       0.00029211
  23      -0.00000000
  24      -0.00000000
  25      -0.00000000
  26       0.00000000
  27      -0.00000000
  28      -0.00000000
  29      -0.00000000
  30      -0.00000000
  31      -0.00000000
  32      -0.00000000
  33       0.00000000
  34      -0.00000000
Ene=     9.33897E-04
Spin= Alpha
Occup=   0.0000000000
   1      -0.00000000
   2       0.00000000
   3       0.00000000
   4      -0.00000000
   5       0.00000000
   6      -0.00000000
   7      -0.00000000
   8       0.00000000
   9      -0.00000000
  10       0.00000000
  11       0.00072170
  12       0.87980990
  13      -0.00309045
  14      -0.00135357
  15      -1.65010608
  16       0.00579623
  17       0.00027467
  18       0.33484816
  19      -0.00117620
  20      -0.00005411
  21      -0.06596419
  22       0.00023171
  23       0.00000000
  24       0.00000000
  25       0.00000000
  26      -0.00000000
  27       0.00000000
  28      -0.00000000
  29       0.00000000
  30       0.00000000
  31       0.00000000
  32       0.00000000
  33      -0.00000000
  34       0.00000000
Ene=     9.33897E-04
Spin= Alpha
Occup=   0.0000000000
   1      -0.00000000
   2       0.00000000
   3       0.00000000
   4      -0.00000000
   5       0.00000000
   6      -0.00000000
   7       0.00000000
   8       0.00000000
   9       0.00000000
  10       0.00000000
  11      -0.00389859
  12      -0.00308723
  13      -0.87980157
  14       0.00731190
  15       0.00579017
  16       1.65009045
  17      -0.00148377
  18      -0.00117497
  19      -0.33484499
  20       0.00029230
  21       0.00023147
  22       0.06596357
  23       0.00000000
  24       0.00000000
  25       0.00000000
  26       0.00000000
  27      -0.00000000
  28       0.00000000
  29       0.00000000
  30       0.00000000
  31       0.00000000
  32       0.00000000
  33       0.00000000
  34       0.00000000
Ene=     9.40967E-04
Spin= Alpha
Occup=   0.0000000000
   1     -10.59271307
   2       3.41152266
   3       0.97778833
   4      -0.28499327
   5       0.00214876
   6      -0.06419321
   7       0.00630500
   8       0.00789542
   9       0.00081249
  10       0.00026874
  11       0.00000000
  12      -0.00000000
  13       0.00000000
  14      -0.00000000
  15       0.00000000
  16      -0.00000000
  17       0.00000000
  18      -0.00000000
  19       0.00000000
  20      -0.00000000
  21       0.00000000
  22      -0.00000000
  23       1.76867927
  24       1.76867927
  25       1.76867927
  26       0.00000000
  27      -0.00000000
  28      -0.00000000
  29       2.18266500
  30       2.18266500
  31       2.18266500
  32      -0.00000000
  33       0.00000000
  34       0.00000000
Ene=     1.27060E-03
Spin= Alpha
Occup=   0.0000000000
   1       0.00000000
   2      -0.00000000
   3      -0.00000000
   4      -0.00000000
   5       0.00000000
   6       0.00000000
   7       0.00000000
   8      -0.00000000
   9       0.00000000
  10      -0.00000000
  11      -0.00000000
  12      -0.00000000
  13       0.00000000
  14       0.00000000
  15       0.00000000
  16       0.00000000
  17      -0.00000000
  18      -0.00000000
  19      -0.00000000
  20       0.00000000
  21       0.00000000
  22       0.00000000
  23      -0.38441767
  24      -0.21567730
  25       0.60009497
  26       0.01232093
  27      -0.00489191
  28      -0.01221800
  29       0.78524893
  30       0.44056343
  31      -1.22581236
  32      -0.02516792
  33       0.00999270
  34       0.02495767
Ene=     1.27060E-03
Spin= Alpha
Occup=   0.0000000000
   1      -0.00000000
   2       0.00000000
   3      -0.00000000
   4       0.00000000
   5      -0.00000000
   6       0.00000000
   7      -0.00000000
   8       0.00000000
   9      -0.00000000
  10       0.00000000
  11      -0.00000000
  12       0.00000000
  13       0.00000000
  14       0.00000000
  15      -0.00000000
  16      -0.00000000
  17      -0.00000000
  18       0.00000000
  19       0.00000000
  20       0.00000000
  21      -0.00000000
  22      -0.00000000
  23       0.07413014
  24      -0.07347942
  25      -0.00065072
  26       0.59268690
  27      -0.05318951
  28      -0.09251982
  29      -0.15142544
  30       0.15009622
  31       0.00132922
  32      -1.21067992
  33       0.10865007
  34       0.18898999
Ene=     1.27060E-03
Spin= Alpha
Occup=   0.0000000000
   1       0.00000000
   2      -0.00000000
   3       0.00000000
   4      -0.00000000
   5       0.00000000
   6       0.00000000
   7       0.00000000
   8      -0.00000000
   9       0.00000000
  10      -0.00000000
  11       0.00000000
  12      -0.00000000
  13      -0.00000000
  14      -0.00000000
  15       0.00000000
  16       0.00000000
  17       0.00000000
  18      -0.00000000
  19      -0.00000000
  20      -0.00000000
  21       0.00000000
  22       0.00000000
  23      -0.20492934
  24       0.23820360
  25      -0.03327425
  26       0.13058477
  27       0.36500463
  28       0.39126277
  29       0.41860861
  30      -0.48657784
  31       0.06796923
  32      -0.26674515
  33      -0.74559395
  34      -0.79923140
Ene=     1.27060E-03
Spin= Alpha
Occup=   0.0000000000
   1       0.00000000
   2      -0.00000000
   3       0.00000000
   4       0.00000000
   5       0.00000000
   6       0.00000000
   7       0.00000000
   8      -0.00000000
   9      -0.00000000
  10      -0.00000000
  11      -0.00000000
  12       0.00000000
  13      -0.00000000
  14       0.00000000
  15      -0.00000000
  16       0.00000000
  17      -0.00000000
  18      -0.00000000
  19      -0.00000000
  20       0.00000000
  21      -0.00000000
  22       0.00000000
  23      -0.41786850
  24       0.51113503
  25      -0.09326653
  26       0.02936739
  27      -0.17649478
  28      -0.20380401
  29       0.85357885
  30      -1.04409414
  31       0.19051529
  32      -0.05998868
  33       0.36052541
  34       0.41630989
Ene=     1.27060E-03
Spin= Alpha
Occup=   0.0000000000
   1       0.00000000
   2       0.00000000
   3      -0.00000000
   4       0.00000000
   5      -0.00000000
   6       0.00000000
   7      -0.00000000
   8       0.00000000
   9       0.00000000
  10      -0.00000000
  11      -0.00000000
  12       0.00000000
  13       0.00000000
  14       0.00000000
  15      -0.00000000
  16      -0.00000000
  17      -0.00000000
  18       0.00000000
  19       0.00000000
  20       0.00000000
  21      -0.00000000
  22      -0.00000000
  23      -0.00690986
  24       0.00376740
  25       0.00314246
  26       0.02420116
  27      -0.45022023
  28       0.40816451
  29       0.01411475
  30      -0.00769566
  31      -0.00641909
  32      -0.04943565
  33       0.91966363
  34      -0.83375653
Ene=     2.12074E-03
Spin= Alpha
Occup=   0.0000000000
   1     -10.11515119
   2      -1.84775556
   3       3.07191876
   4      -0.25614047
   5       0.18808856
   6       0.05084730
   7       0.00545034
   8      -0.01726020
   9      -0.00019044
  10      -0.00063865
  11      -0.00000000
  12       0.00000000
  13      -0.00000000
  14      -0.00000000
  15      -0.00000000
  16       0.00000000
  17      -0.00000000
  18       0.00000000
  19      -0.00000000
  20      -0.00000000
  21      -0.00000000
  22       0.00000000
  23       1.48882313
  24       1.48882313
  25       1.48882313
  26      -0.00000000
  27      -0.00000000
  28      -0.00000000
  29       3.61098743
  30       3.61098743
  31       3.61098743
  32       0.00000000
  33       0.00000000
  34       0.00000000
Ene=     3.06604E-03
Spin= Alpha
Occup=   0.0000000000
   1       0.00000000
   2       0.00000000
   3      -0.00000000
   4       0.00000000
   5      -0.00000000
   6       0.00000000
   7       0.00000000
   8      -0.00000000
   9       0.00000000
  10      -0.00000000
  11      -0.01393188
  12       0.46559226
  13      -0.01593193
  14       0.04019782
  15      -1.34337856
  16       0.04596857
  17      -0.05166594
  18       1.72663387
  19      -0.05908304
  20       0.00676747
  21      -0.22616337
  22       0.00773900
  23      -0.00000000
  24      -0.00000000
  25      -0.00000000
  26       0.00000000
  27      -0.00000000
  28      -0.00000000
  29      -0.00000000
  30      -0.00000000
  31      -0.00000000
  32       0.00000000
  33       0.00000000
  34       0.00000000
Ene=     3.06604E-03
Spin= Alpha
Occup=   0.0000000000
   1      -0.00000000
   2       0.00000000
   3       0.00000000
   4      -0.00000000
   5       0.00000000
   6      -0.00000000
   7       0.00000000
   8      -0.00000000
   9      -0.00000000
  10       0.00000000
  11       0.46556932
  12       0.01334734
  13      -0.01706263
  14      -1.34331237
  15      -0.03851123
  16       0.04923099
  17       1.72654879
  18       0.04949817
  19      -0.06327620
  20      -0.22615223
  21      -0.00648353
  22       0.00828824
  23       0.00000000
  24       0.00000000
  25       0.00000000
  26      -0.00000000
  27      -0.00000000
  28       0.00000000
  29      -0.00000000
  30       0.00000000
  31       0.00000000
  32      -0.00000000
  33       0.00000000
  34      -0.00000000
Ene=     3.06604E-03
Spin= Alpha
Occup=   0.0000000000
   1       0.00000000
   2       0.00000000
   3      -0.00000000
   4       0.00000000
   5      -0.00000000
   6       0.00000000
   7      -0.00000000
   8       0.00000000
   9      -0.00000000
  10       0.00000000
  11      -0.01658877
  12      -0.01642475
  13      -0.46548804
  14       0.04786376
  15       0.04739051
  16       1.34307786
  17      -0.06151891
  18      -0.06091065
  19      -1.72624738
  20       0.00805806
  21       0.00797839
  22       0.22611275
  23      -0.00000000
  24      -0.00000000
  25      -0.00000000
  26       0.00000000
  27      -0.00000000
  28       0.00000000
  29      -0.00000000
  30      -0.00000000
  31      -0.00000000
  32      -0.00000000
  33       0.00000000
  34      -0.00000000
Ene=     5.05696E-03
Spin= Alpha
Occup=   0.0000000000
   1       6.98340200
   2       5.53317273
   3      -7.27723985
   4       2.03252270
   5      -0.17916408
   6       0.23570783
   7      -0.03178919
   8      -0.01878483
   9      -0.00335473
  10      -0.00058823
  11       0.00000000
  12      -0.00000000
  13       0.00000000
  14      -0.00000000
  15       0.00000000
  16      -0.00000000
  17       0.00000000
  18      -0.00000000
  19      -0.00000000
  20      -0.00000000
  21      -0.00000000
  22       0.00000000
  23      -0.99145913
  24      -0.99145913
  25      -0.99145913
  26       0.00000000
  27       0.00000000
  28       0.00000000
  29      -3.26730069
  30      -3.26730069
  31      -3.26730069
  32      -0.00000000
  33      -0.00000000
  34      -0.00000000
Ene=     9.22583E-03
Spin= Alpha
Occup=   0.0000000000
   1       0.00000000
   2      -0.00000000
   3       0.00000000
   4       0.00000000
   5      -0.00000000
   6       0.00000000
   7      -0.00000000
   8       0.00000000
   9       0.00000000
  10       0.00000000
  11       0.22913162
  12      -0.00508519
  13      -0.01339800
  14      -0.71207131
  15       0.01580323
  16       0.04163692
  17       1.42487217
  18      -0.03162265
  19      -0.08331649
  20      -1.54506015
  21       0.03429002
  22       0.09034424
  23       0.00000000
  24      -0.00000000
  25      -0.00000000
  26      -0.00000000
  27       0.00000000
  28      -0.00000000
  29      -0.00000000
  30       0.00000000
  31      -0.00000000
  32      -0.00000000
  33       0.00000000
  34       0.00000000
Ene=     9.22583E-03
Spin= Alpha
Occup=   0.0000000000
   1       0.00000000
   2      -0.00000000
   3      -0.00000000
   4       0.00000000
   5      -0.00000000
   6      -0.00000000
   7       0.00000000
   8       0.00000000
   9       0.00000000
  10      -0.00000000
  11      -0.01339598
  12       0.00023959
  13      -0.22918804
  14       0.04163064
  15      -0.00074457
  16       0.71224663
  17      -0.08330394
  18       0.00148991
  19      -1.42522299
  20       0.09033062
  21      -0.00161558
  22       1.54544056
  23      -0.00000000
  24      -0.00000000
  25      -0.00000000
  26      -0.00000000
  27       0.00000000
  28       0.00000000
  29      -0.00000000
  30      -0.00000000
  31      -0.00000000
  32       0.00000000
  33       0.00000000
  34      -0.00000000
Ene=     9.22583E-03
Spin= Alpha
Occup=   0.0000000000
   1      -0.00000000
   2      -0.00000000
   3       0.00000000
   4      -0.00000000
   5       0.00000000
   6      -0.00000000
   7       0.00000000
   8      -0.00000000
   9       0.00000000
  10      -0.00000000
  11      -0.00509051
  12      -0.22952287
  13       0.00005760
  14       0.01581974
  15       0.71328720
  16      -0.00017900
  17      -0.03165570
  18      -1.42730520
  19       0.00035819
  20       0.03432586
  21       1.54769840
  22      -0.00038840
  23       0.00000000
  24      -0.00000000
  25      -0.00000000
  26      -0.00000000
  27      -0.00000000
  28       0.00000000
  29      -0.00000000
  30       0.00000000
  31       0.00000000
  32      -0.00000000
  33       0.00000000
  34      -0.00000000
Ene=     1.51825E-02
Spin= Alpha
Occup=   0.0000000000
   1      -3.81304228
   2      -3.71319454
   3       5.87863670
   4      -4.55827544
   5       2.21916789
   6      -0.14315042
   7       0.10588084
   8      -0.08158476
   9       0.00511468
  10      -0.00316789
  11       0.00000000
  12       0.00000000
  13      -0.00000000
  14       0.00000000
  15      -0.00000000
  16       0.00000000
  17      -0.00000000
  18       0.00000000
  19      -0.00000000
  20      -0.00000000
  21      -0.00000000
  22       0.00000000
  23       0.54349639
  24       0.54349639
  25       0.54349639
  26      -0.00000000
  27      -0.00000000
  28      -0.00000000
  29       1.86960850
  30       1.86960850
  31       1.86960850
  32       0.00000000
  33       0.00000000
  34       0.00000000
Ene=     5.36613E-02
Spin= Alpha
Occup=   0.0000000000
   1      -1.91724108
   2      -1.82954301
   3       3.04707341
   4      -3.21137965
   5       3.99114237
   6      -2.87432890
   7       0.53540392
   8      -0.03274296
   9       0.04063265
  10      -0.00257714
  11      -0.00000000
  12       0.00000000
  13      -0.00000000
  14       0.00000000
  15      -0.00000000
  16       0.00000000
  17      -0.00000000
  18       0.00000000
  19      -0.00000000
  20      -0.00000000
  21      -0.00000000
  22       0.00000000
  23       0.27510126
  24       0.27510126
  25       0.27510126
  26       0.00000000
  27      -0.00000000
  28      -0.00000000
  29       0.92837191
  30       0.92837191
  31       0.92837191
  32      -0.00000000
  33       0.00000000
  34       0.00000000
Ene=     2.07392E-01
Spin= Alpha
Occup=   0.0000000000
   1      -0.89663943
   2      -0.83108291
   3       1.38713277
   4      -1.49422026
   5       2.31109143
   6      -3.46476990
   7       3.30864263
   8      -1.02075161
   9       0.13234805
  10      -0.03581082
  11      -0.00000000
  12       0.00000000
  13       0.00000000
  14       0.00000000
  15      -0.00000000
  16      -0.00000000
  17      -0.00000000
  18       0.00000000
  19       0.00000000
  20      -0.00000000
  21      -0.00000000
  22      -0.00000000
  23       0.12906724
  24       0.12906724
  25       0.12906724
  26      -0.00000000
  27      -0.00000000
  28      -0.00000000
  29       0.42952427
  30       0.42952427
  31       0.42952427
  32       0.00000000
  33       0.00000000
  34       0.00000000
Ene=     8.01897E-01
Spin= Alpha
Occup=   0.0000000000
   1       0.42764618
   2       0.39158090
   3      -0.65222006
   4       0.69240826
   5      -1.07589864
   6       1.85710767
   7      -2.99121628
   8       3.27492592
   9      -1.11634089
  10       0.11379720
  11       0.00000000
  12      -0.00000000
  13      -0.00000000
  14      -0.00000000
  15       0.00000000
  16       0.00000000
  17       0.00000000
  18      -0.00000000
  19      -0.00000000
  20       0.00000000
  21       0.00000000
  22       0.00000000
  23      -0.06162452
  24      -0.06162452
  25      -0.06162452
  26       0.00000000
  27       0.00000000
  28      -0.00000000
  29      -0.20400117
  30      -0.20400117
  31      -0.20400117
  32      -0.00000000
  33      -0.00000000
  34      -0.00000000
Ene=     2.74351E+00
Spin= Alpha
Occup=   0.0000000000
   1      -0.21270142
   2      -0.19402501
   3       0.32287183
   4      -0.34038638
   5       0.52324160
   6      -0.90501561
   7       1.61147824
   8      -2.65853448
   9       2.94451266
  10      -0.80200407
  11      -0.00000000
  12       0.00000000
  13       0.00000000
  14       0.00000000
  15      -0.00000000
  16      -0.00000000
  17      -0.00000000
  18       0.00000000
  19       0.00000000
  20      -0.00000000
  21      -0.00000000
  22      -0.00000000
  23       0.03066024
  24       0.03066024
  25       0.03066024
  26       0.00000000
  27      -0.00000000
  28       0.00000000
  29       0.10133595
  30       0.10133595
  31       0.10133595
  32       0.00000000
  33       0.00000000
  34       0.00000000
Ene=     1.03652E+01
Spin= Alpha
Occup=   0.0000000000
   1      -0.10898626
   2      -0.09927273
   3       0.16512721
   4      -0.17352085
   5       0.26485290
   6      -0.45244396
   7       0.79930203
   8      -1.39756915
   9       2.16148848
  10      -1.98270926
  11       0.00000000
  12       0.00000000
  13       0.00000000
  14       0.00000000
  15      -0.00000000
  16      -0.00000000
  17      -0.00000000
  18       0.00000000
  19       0.00000000
  20       0.00000000
  21      -0.00000000
  22      -0.00000000
  23       0.01571181
  24       0.01571181
  25       0.01571181
  26       0.00000000
  27      -0.00000000
  28       0.00000000
  29       0.05189871
  30       0.05189871
  31       0.05189871
  32      -0.00000000
  33       0.00000000
  34      -0.00000000
