[Molden Format]
[Atoms] AU
H       1       1     0.00000000     0.00000000     0.00000000
[GTO]
  1 0
s  3 1.00
   3.3865000000E+01   2.5493800000E-02
   5.0947900000E+00   1.9037300000E-01
   1.1587900000E+00   8.5216100000E-01
s  1 1.00
   3.2584000000E-01   1.0000000000E+00
s  1 1.00
   1.0274100000E-01   1.0000000000E+00
s  1 1.00
   3.6000000000E-02   1.0000000000E+00
p  1 1.00
   7.5000000000E-01   1.0000000000E+00
 
 
[MO]
Ene=    -4.25175E-02
Spin= Alpha
Occup=   2.0000000000
   1      -0.15312911
   2      -0.29190152
   3      -0.31512404
   4      -0.42991223
   5       0.00000000
   6       0.00000000
   7       0.00000000
Ene=     2.83663E-01
Spin= Alpha
Occup=   0.0000000000
   1      -0.12880337
   2       0.11666700
   3      -1.59049286
   4       1.75190028
   5       0.00000000
   6       0.00000000
   7       0.00000000
Ene=     8.30861E-01
Spin= Alpha
Occup=   0.0000000000
   1       0.09422900
   2       1.72562629
   3      -2.48581313
   4       1.00934113
   5       0.00000000
   6       0.00000000
   7       0.00000000
Ene=     1.90671E+00
Spin= Alpha
Occup=   0.0000000000
   1       0.00000000
   2       0.00000000
   3       0.00000000
   4       0.00000000
   5       1.00000000
   6       0.00000000
   7       0.00000000
Ene=     1.90671E+00
Spin= Alpha
Occup=   0.0000000000
   1       0.00000000
   2       0.00000000
   3       0.00000000
   4       0.00000000
   5       0.00000000
   6       1.00000000
   7       0.00000000
Ene=     1.90671E+00
Spin= Alpha
Occup=   0.0000000000
   1       0.00000000
   2       0.00000000
   3       0.00000000
   4       0.00000000
   5       0.00000000
   6       0.00000000
   7       1.00000000
Ene=     3.03229E+00
Spin= Alpha
Occup=   0.0000000000
   1      -1.59459797
   2       2.15513840
   3      -1.42754290
   4       0.49726265
   5       0.00000000
   6       0.00000000
   7       0.00000000
