 Molden2AIM, Version 3.1.0 (02/25/2015)           Time: Thu Oct  3 13:34:12 2024
GAUSSIAN              7 MOL ORBITALS      9 PRIMITIVES        1 NUCLEI
  H    1    (CENTRE  1)   0.00000000  0.00000000  0.00000000  CHARGE =  1.0
CENTRE ASSIGNMENTS    1  1  1  1  1  1  1  1  1
TYPE ASSIGNMENTS      1  1  1  1  1  1  2  3  4
EXPONENTS  0.3386500D+02 0.5094790D+01 0.1158790D+01 0.3258400D+00 0.1027410D+00
EXPONENTS  0.3600000D-01 0.7500000D+00 0.7500000D+00 0.7500000D+00
MO    1     MO 0.0        OCC NO =    2.0000000  ORB. ENERGY =   -0.042517
 -0.39058538D-01 -0.70456030D-01 -0.10387076D+00 -0.89722165D-01 -0.40756743D-01
 -0.25323094D-01  0.00000000D+00  0.00000000D+00  0.00000000D+00
MO    2     MO 0.0        OCC NO =    0.0000000  ORB. ENERGY =    0.283663
 -0.32853788D-01 -0.59263546D-01 -0.87370088D-01  0.35860094D-01 -0.20570728D+00
  0.10319208D+00  0.00000000D+00  0.00000000D+00  0.00000000D+00
MO    3     MO 0.0        OCC NO =    0.0000000  ORB. ENERGY =    0.830861
  0.24034927D-01  0.43355579D-01  0.63917552D-01  0.53040809D+00 -0.32150402D+00
  0.59453159D-01  0.00000000D+00  0.00000000D+00  0.00000000D+00
MO    4     MO 0.0        OCC NO =    0.0000000  ORB. ENERGY =    1.906710
  0.00000000D+00  0.00000000D+00  0.00000000D+00  0.00000000D+00  0.00000000D+00
  0.00000000D+00  0.99487076D+00  0.00000000D+00  0.00000000D+00
MO    5     MO 0.0        OCC NO =    0.0000000  ORB. ENERGY =    1.906710
  0.00000000D+00  0.00000000D+00  0.00000000D+00  0.00000000D+00  0.00000000D+00
  0.00000000D+00  0.00000000D+00  0.99487076D+00  0.00000000D+00
MO    6     MO 0.0        OCC NO =    0.0000000  ORB. ENERGY =    1.906710
  0.00000000D+00  0.00000000D+00  0.00000000D+00  0.00000000D+00  0.00000000D+00
  0.00000000D+00  0.00000000D+00  0.00000000D+00  0.99487076D+00
MO    7     MO 0.0        OCC NO =    0.0000000  ORB. ENERGY =    3.032290
 -0.40673302D+00 -0.73368834D+00 -0.10816500D+01  0.66242781D+00 -0.18463205D+00
  0.29290232D-01  0.00000000D+00  0.00000000D+00  0.00000000D+00
END DATA
 THE  HF ENERGY =     -0.486962738714 THE VIRIAL(-V/T)=   1.98991469


 $MOSPIN $END
 3 3 3 3 3 3 3


