[Molden Format]
[Atoms] AU
BE       1       4     0.00000000     0.00000000     0.00000000
[GTO]
  1 0
s  6 1.00
   1.6828000000E+03   2.2857400000E-03
   2.5171500000E+02   1.7593800000E-02
   5.7411600000E+01   8.6331500000E-02
   1.6517100000E+01   2.8183500000E-01
   4.8536400000E+00   6.4059400000E-01
   6.2686300000E-01   1.4446700000E-01
s  3 1.00
   8.3093800000E+00   1.0862100000E-01
   1.7407500000E+00   9.2730100000E-01
   4.8581600000E-01  -2.9716900000E-03
p  3 1.00
   8.3093800000E+00   3.6134400000E-02
   1.7407500000E+00   2.1695800000E-01
   4.8581600000E-01   8.4183900000E-01
s  1 1.00
   1.6361300000E-01   1.0000000000E+00
p  1 1.00
   1.6361300000E-01   1.0000000000E+00
s  1 1.00
   5.6728500000E-02   1.0000000000E+00
p  1 1.00
   5.6728500000E-02   1.0000000000E+00
s  1 1.00
   2.0700000000E-02   1.0000000000E+00
p  1 1.00
   2.0700000000E-02   1.0000000000E+00
d  1 1.00
   2.5500000000E-01   1.0000000000E+00
 
 
[MO]
Ene=    -4.73235E+00
Spin= Alpha
Occup=   2.0000000000
   1       0.59628020
   2       0.44644312
   3      -0.00000000
   4       0.00000000
   5      -0.00000000
   6      -0.00488926
   7      -0.00000000
   8       0.00000000
   9       0.00000000
  10       0.00142518
  11      -0.00000000
  12       0.00000000
  13      -0.00000000
  14      -0.00042892
  15      -0.00000000
  16       0.00000000
  17       0.00000000
  18       0.00067091
  19       0.00067091
  20       0.00067091
  21       0.00000000
  22      -0.00000000
  23       0.00000000
Ene=    -3.09258E-01
Spin= Alpha
Occup=   2.0000000000
   1       0.10958600
   2       0.18569382
   3      -0.00000000
   4       0.00000000
   5      -0.00000000
   6      -0.58399962
   7      -0.00000000
   8       0.00000000
   9       0.00000000
  10      -0.50012851
  11       0.00000000
  12      -0.00000000
  13       0.00000000
  14      -0.02234730
  15       0.00000000
  16      -0.00000000
  17      -0.00000000
  18       0.00177247
  19       0.00177247
  20       0.00177247
  21      -0.00000000
  22      -0.00000000
  23      -0.00000000
Ene=     2.95657E-02
Spin= Alpha
Occup=   0.0000000000
   1       0.00000000
   2       0.00000000
   3       0.06250738
   4      -0.04308639
   5       0.00288147
   6       0.00000000
   7       0.16405885
   8      -0.11308590
   9       0.00756280
  10      -0.00000000
  11       0.00164824
  12      -0.00113613
  13       0.00007598
  14       0.00000000
  15       0.73873949
  16      -0.50921375
  17       0.03405447
  18      -0.00000000
  19       0.00000000
  20       0.00000000
  21       0.00000000
  22      -0.00000000
  23       0.00000000
Ene=     2.95657E-02
Spin= Alpha
Occup=   0.0000000000
   1      -0.00000000
   2      -0.00000000
   3      -0.03891614
   4      -0.05840318
   5      -0.02909495
   6      -0.00000000
   7      -0.10214052
   8      -0.15328682
   9      -0.07636352
  10       0.00000000
  11      -0.00102617
  12      -0.00154002
  13      -0.00076720
  14      -0.00000000
  15      -0.45992787
  16      -0.69023420
  17      -0.34385679
  18      -0.00000000
  19       0.00000000
  20      -0.00000000
  21      -0.00000000
  22      -0.00000000
  23      -0.00000000
Ene=     2.95657E-02
Spin= Alpha
Occup=   0.0000000000
   1      -0.00000000
   2      -0.00000000
   3       0.01871562
   4       0.02246207
   5      -0.07012199
   6      -0.00000000
   7       0.04912159
   8       0.05895466
   9      -0.18404440
  10       0.00000000
  11       0.00049351
  12       0.00059230
  13      -0.00184903
  14      -0.00000000
  15       0.22118929
  16       0.26546656
  17      -0.82873228
  18       0.00000000
  19      -0.00000000
  20      -0.00000000
  21      -0.00000000
  22       0.00000000
  23       0.00000000
Ene=     5.10962E-02
Spin= Alpha
Occup=   0.0000000000
   1      -0.03070780
   2      -0.06677068
   3       0.00000000
   4       0.00000000
   5       0.00000000
   6       0.01237736
   7      -0.00000000
   8       0.00000000
   9       0.00000000
  10       1.48552064
  11       0.00000000
  12      -0.00000000
  13       0.00000000
  14      -1.84936860
  15      -0.00000000
  16       0.00000000
  17       0.00000000
  18      -0.04913267
  19      -0.04913267
  20      -0.04913267
  21      -0.00000000
  22      -0.00000000
  23       0.00000000
Ene=     9.80286E-02
Spin= Alpha
Occup=   0.0000000000
   1       0.00000000
   2       0.00000000
   3      -0.03905344
   4       0.16862741
   5       0.01472643
   6      -0.00000000
   7      -0.02061476
   8       0.08901172
   9       0.00777350
  10       0.00000000
  11      -0.27974146
  12       1.20788544
  13       0.10548607
  14       0.00000000
  15       0.26131567
  16      -1.12832541
  17      -0.09853800
  18      -0.00000000
  19       0.00000000
  20      -0.00000000
  21      -0.00000000
  22      -0.00000000
  23       0.00000000
Ene=     9.80286E-02
Spin= Alpha
Occup=   0.0000000000
   1       0.00000000
   2       0.00000000
   3       0.16892504
   4       0.03978955
   5      -0.00763963
   6       0.00000000
   7       0.08916883
   8       0.02100332
   9      -0.00403266
  10      -0.00000000
  11       1.21001740
  12       0.28501424
  13      -0.05472303
  14       0.00000000
  15      -1.13031694
  16      -0.26624115
  17       0.05111858
  18      -0.00000000
  19       0.00000000
  20       0.00000000
  21      -0.00000000
  22       0.00000000
  23      -0.00000000
Ene=     9.80286E-02
Spin= Alpha
Occup=   0.0000000000
   1       0.00000000
   2       0.00000000
   3       0.01078893
   4      -0.01260281
   5       0.17292198
   6      -0.00000000
   7       0.00569505
   8      -0.00665252
   9       0.09127866
  10      -0.00000000
  11       0.07728158
  12      -0.09027446
  13       1.23864762
  14       0.00000000
  15      -0.07219126
  16       0.08432834
  17      -1.15706137
  18      -0.00000000
  19       0.00000000
  20      -0.00000000
  21      -0.00000000
  22       0.00000000
  23      -0.00000000
Ene=     3.21205E-01
Spin= Alpha
Occup=   0.0000000000
   1       0.10082017
   2       0.12068364
   3      -0.00000000
   4       0.00000000
   5      -0.00000000
   6      -1.78312829
   7      -0.00000000
   8       0.00000000
   9      -0.00000000
  10       3.26831352
  11       0.00000000
  12      -0.00000000
  13       0.00000000
  14      -1.32221679
  15      -0.00000000
  16       0.00000000
  17      -0.00000000
  18      -0.26061098
  19      -0.26061098
  20      -0.26061098
  21      -0.00000000
  22       0.00000000
  23       0.00000000
Ene=     3.45805E-01
Spin= Alpha
Occup=   0.0000000000
   1      -0.00000000
   2      -0.00000000
   3      -0.14134153
   4       0.12977282
   5      -0.00988425
   6       0.00000000
   7      -0.97710566
   8       0.89713021
   9      -0.06833064
  10      -0.00000000
  11       1.32772801
  12      -1.21905436
  13       0.09285025
  14       0.00000000
  15      -0.55206531
  16       0.50687913
  17      -0.03860686
  18      -0.00000000
  19       0.00000000
  20       0.00000000
  21       0.00000000
  22      -0.00000000
  23       0.00000000
Ene=     3.45805E-01
Spin= Alpha
Occup=   0.0000000000
   1      -0.00000000
   2      -0.00000000
   3      -0.12867980
   4      -0.14152883
   5      -0.01808897
   6       0.00000000
   7      -0.88957407
   8      -0.97840049
   9      -0.12505052
  10      -0.00000000
  11       1.20878678
  12       1.32948747
  13       0.16992336
  14       0.00000000
  15      -0.50260990
  16      -0.55279689
  17      -0.07065362
  18       0.00000000
  19      -0.00000000
  20       0.00000000
  21      -0.00000000
  22       0.00000000
  23      -0.00000000
Ene=     3.45805E-01
Spin= Alpha
Occup=   0.0000000000
   1      -0.00000000
   2      -0.00000000
   3       0.01949853
   4       0.00668704
   5      -0.19102671
   6       0.00000000
   7       0.13479494
   8       0.04622806
   9      -1.32058338
  10      -0.00000000
  11      -0.18316445
  12      -0.06281643
  13       1.79445848
  14       0.00000000
  15       0.07615923
  16       0.02611888
  17      -0.74613043
  18       0.00000000
  19       0.00000000
  20       0.00000000
  21      -0.00000000
  22       0.00000000
  23      -0.00000000
Ene=     6.92851E-01
Spin= Alpha
Occup=   0.0000000000
   1       0.00000000
   2      -0.00000000
   3       0.00000000
   4      -0.00000000
   5       0.00000000
   6       0.00000000
   7      -0.00000000
   8       0.00000000
   9       0.00000000
  10       0.00000000
  11       0.00000000
  12      -0.00000000
  13      -0.00000000
  14       0.00000000
  15      -0.00000000
  16       0.00000000
  17       0.00000000
  18       0.06989549
  19      -0.08987167
  20       0.01997618
  21      -0.96085134
  22      -0.23778927
  23      -0.10636452
Ene=     6.92851E-01
Spin= Alpha
Occup=   0.0000000000
   1       0.00000000
   2       0.00000000
   3      -0.00000000
   4      -0.00000000
   5      -0.00000000
   6      -0.00000000
   7       0.00000000
   8       0.00000000
   9       0.00000000
  10       0.00000000
  11      -0.00000000
  12      -0.00000000
  13      -0.00000000
  14      -0.00000000
  15       0.00000000
  16       0.00000000
  17       0.00000000
  18      -0.66661007
  19      -0.28828449
  20       0.95489455
  21      -0.05348294
  22       0.16929445
  23       0.09457945
Ene=     6.92851E-01
Spin= Alpha
Occup=   0.0000000000
   1      -0.00000000
   2      -0.00000000
   3      -0.00000000
   4      -0.00000000
   5      -0.00000000
   6       0.00000000
   7       0.00000000
   8       0.00000000
   9       0.00000000
  10      -0.00000000
  11      -0.00000000
  12      -0.00000000
  13       0.00000000
  14       0.00000000
  15       0.00000000
  16       0.00000000
  17      -0.00000000
  18       0.04065066
  19       0.17542543
  20      -0.21607609
  21      -0.25095817
  22       0.67106641
  23       0.65874596
Ene=     6.92851E-01
Spin= Alpha
Occup=   0.0000000000
   1      -0.00000000
   2       0.00000000
   3      -0.00000000
   4       0.00000000
   5       0.00000000
   6       0.00000000
   7       0.00000000
   8       0.00000000
   9      -0.00000000
  10      -0.00000000
  11      -0.00000000
  12      -0.00000000
  13       0.00000000
  14       0.00000000
  15      -0.00000000
  16       0.00000000
  17      -0.00000000
  18       0.69136031
  19      -0.85171712
  20       0.16035681
  21       0.02082092
  22       0.36886101
  23      -0.20999467
Ene=     6.92851E-01
Spin= Alpha
Occup=   0.0000000000
   1      -0.00000000
   2       0.00000000
   3      -0.00000000
   4      -0.00000000
   5       0.00000000
   6      -0.00000000
   7       0.00000000
   8       0.00000000
   9       0.00000000
  10       0.00000000
  11      -0.00000000
  12      -0.00000000
  13      -0.00000000
  14      -0.00000000
  15       0.00000000
  16       0.00000000
  17       0.00000000
  18      -0.26667225
  19       0.39066483
  20      -0.12399258
  21      -0.10242447
  22       0.57306813
  23      -0.70830594
Ene=     1.19879E+00
Spin= Alpha
Occup=   0.0000000000
   1       0.00000000
   2      -0.00000000
   3       0.87803160
   4      -1.10587695
   5      -0.04862186
   6       0.00000000
   7      -1.07162135
   8       1.34970239
   9       0.05934209
  10       0.00000000
  11       0.66000667
  12      -0.83127551
  13      -0.03654852
  14       0.00000000
  15      -0.22907180
  16       0.28851493
  17       0.01268508
  18       0.00000000
  19      -0.00000000
  20       0.00000000
  21       0.00000000
  22      -0.00000000
  23       0.00000000
Ene=     1.19879E+00
Spin= Alpha
Occup=   0.0000000000
   1      -0.00000000
   2      -0.00000000
   3       0.28893581
   4       0.16905437
   5       1.37266315
   6       0.00000000
   7      -0.35264082
   8      -0.20632774
   9      -1.67531002
  10      -0.00000000
  11       0.21718987
  12       0.12707631
  13       1.03181576
  14       0.00000000
  15      -0.07538117
  16      -0.04410501
  17      -0.35811743
  18       0.00000000
  19      -0.00000000
  20      -0.00000000
  21      -0.00000000
  22       0.00000000
  23       0.00000000
Ene=     1.19879E+00
Spin= Alpha
Occup=   0.0000000000
   1      -0.00000000
   2       0.00000000
   3      -1.06857101
   4      -0.86297404
   5       0.33120869
   6       0.00000000
   7       1.30417118
   8       1.05324388
   9      -0.40423409
  10      -0.00000000
  11      -0.80323305
  12      -0.64868807
  13       0.24896592
  14       0.00000000
  15       0.27878209
  16       0.22514340
  17      -0.08640984
  18       0.00000000
  19      -0.00000000
  20      -0.00000000
  21       0.00000000
  22      -0.00000000
  23      -0.00000000
Ene=     1.41474E+00
Spin= Alpha
Occup=   0.0000000000
   1      -0.16627305
   2      -0.73292972
   3      -0.00000000
   4       0.00000000
   5      -0.00000000
   6       2.90078129
   7       0.00000000
   8      -0.00000000
   9       0.00000000
  10       1.40631456
  11      -0.00000000
  12       0.00000000
  13      -0.00000000
  14      -0.49756813
  15       0.00000000
  16      -0.00000000
  17       0.00000000
  18      -1.67795259
  19      -1.67795259
  20      -1.67795259
  21      -0.00000000
  22       0.00000000
  23      -0.00000000
Ene=     1.00666E+01
Spin= Alpha
Occup=   0.0000000000
   1      -1.91977757
   2       2.57089914
   3      -0.00000000
   4       0.00000000
   5      -0.00000000
   6      -2.02848752
   7      -0.00000000
   8       0.00000000
   9       0.00000000
  10      -0.37717295
  11      -0.00000000
  12       0.00000000
  13      -0.00000000
  14       0.14899607
  15      -0.00000000
  16       0.00000000
  17       0.00000000
  18       0.87435186
  19       0.87435186
  20       0.87435186
  21      -0.00000000
  22      -0.00000000
  23       0.00000000
