[Molden Format]
[Title]
 Molden2AIM, Version 3.1.0 (02/25/2015)           Time: Tue Oct 15 16:19:43 2024

[Atoms] AU
BE       1       4     0.00000000     0.00000000     0.00000000
[GTO]
    1 0
 S   6 1.0
    0.1682800000D+04      0.2285740532D-02
    0.2517150000D+03      0.1759380410D-01
    0.5741160000D+02      0.8633152009D-01
    0.1651710000D+02      0.2818350656D+00
    0.4853640000D+01      0.6405941491D+00
    0.6268630000D+00      0.1444670336D+00
 S   3 1.0
    0.8309380000D+01      0.1086210323D+00
    0.1740750000D+01      0.9273012759D+00
    0.4858160000D+00     -0.2971690884D-02
 P   3 1.0
    0.8309380000D+01      0.3613440323D-01
    0.1740750000D+01      0.2169580194D+00
    0.4858160000D+00      0.8418390753D+00
 S   1 1.0
    0.1636130000D+00      0.1000000000D+01
 P   1 1.0
    0.1636130000D+00      0.1000000000D+01
 S   1 1.0
    0.5672850000D-01      0.1000000000D+01
 P   1 1.0
    0.5672850000D-01      0.1000000000D+01
 S   1 1.0
    0.2070000000D-01      0.1000000000D+01
 P   1 1.0
    0.2070000000D-01      0.1000000000D+01
 D   1 1.0
    0.2550000000D+00      0.1000000000D+01


[MO]
 Ene=         -4.73235000
 Spin= Alpha
 Occup=        2.00000000
    1        0.5962802000
    2        0.4464431200
    3       -0.0000000000
    4        0.0000000000
    5       -0.0000000000
    6       -0.0048892600
    7       -0.0000000000
    8        0.0000000000
    9        0.0000000000
   10        0.0014251800
   11       -0.0000000000
   12        0.0000000000
   13       -0.0000000000
   14       -0.0004289200
   15       -0.0000000000
   16        0.0000000000
   17        0.0000000000
   18        0.0006709100
   19        0.0006709100
   20        0.0006709100
   21        0.0000000000
   22       -0.0000000000
   23        0.0000000000
 Ene=         -0.30925800
 Spin= Alpha
 Occup=        2.00000000
    1        0.1095860000
    2        0.1856938200
    3       -0.0000000000
    4        0.0000000000
    5       -0.0000000000
    6       -0.5839996200
    7       -0.0000000000
    8        0.0000000000
    9        0.0000000000
   10       -0.5001285100
   11        0.0000000000
   12       -0.0000000000
   13        0.0000000000
   14       -0.0223473000
   15        0.0000000000
   16       -0.0000000000
   17       -0.0000000000
   18        0.0017724700
   19        0.0017724700
   20        0.0017724700
   21       -0.0000000000
   22       -0.0000000000
   23       -0.0000000000
 Ene=          0.02956570
 Spin= Alpha
 Occup=        0.00000000
    1        0.0000000000
    2        0.0000000000
    3        0.0625073800
    4       -0.0430863900
    5        0.0028814700
    6        0.0000000000
    7        0.1640588500
    8       -0.1130859000
    9        0.0075628000
   10       -0.0000000000
   11        0.0016482400
   12       -0.0011361300
   13        0.0000759800
   14        0.0000000000
   15        0.7387394900
   16       -0.5092137500
   17        0.0340544700
   18       -0.0000000000
   19        0.0000000000
   20        0.0000000000
   21        0.0000000000
   22       -0.0000000000
   23        0.0000000000
 Ene=          0.02956570
 Spin= Alpha
 Occup=        0.00000000
    1       -0.0000000000
    2       -0.0000000000
    3       -0.0389161400
    4       -0.0584031800
    5       -0.0290949500
    6       -0.0000000000
    7       -0.1021405200
    8       -0.1532868200
    9       -0.0763635200
   10        0.0000000000
   11       -0.0010261700
   12       -0.0015400200
   13       -0.0007672000
   14       -0.0000000000
   15       -0.4599278700
   16       -0.6902342000
   17       -0.3438567900
   18       -0.0000000000
   19        0.0000000000
   20       -0.0000000000
   21       -0.0000000000
   22       -0.0000000000
   23       -0.0000000000
 Ene=          0.02956570
 Spin= Alpha
 Occup=        0.00000000
    1       -0.0000000000
    2       -0.0000000000
    3        0.0187156200
    4        0.0224620700
    5       -0.0701219900
    6       -0.0000000000
    7        0.0491215900
    8        0.0589546600
    9       -0.1840444000
   10        0.0000000000
   11        0.0004935100
   12        0.0005923000
   13       -0.0018490300
   14       -0.0000000000
   15        0.2211892900
   16        0.2654665600
   17       -0.8287322800
   18        0.0000000000
   19       -0.0000000000
   20       -0.0000000000
   21       -0.0000000000
   22        0.0000000000
   23        0.0000000000
 Ene=          0.05109620
 Spin= Alpha
 Occup=        0.00000000
    1       -0.0307078000
    2       -0.0667706800
    3        0.0000000000
    4        0.0000000000
    5        0.0000000000
    6        0.0123773600
    7       -0.0000000000
    8        0.0000000000
    9        0.0000000000
   10        1.4855206400
   11        0.0000000000
   12       -0.0000000000
   13        0.0000000000
   14       -1.8493686000
   15       -0.0000000000
   16        0.0000000000
   17        0.0000000000
   18       -0.0491326700
   19       -0.0491326700
   20       -0.0491326700
   21       -0.0000000000
   22       -0.0000000000
   23        0.0000000000
 Ene=          0.09802860
 Spin= Alpha
 Occup=        0.00000000
    1        0.0000000000
    2        0.0000000000
    3       -0.0390534400
    4        0.1686274100
    5        0.0147264300
    6       -0.0000000000
    7       -0.0206147600
    8        0.0890117200
    9        0.0077735000
   10        0.0000000000
   11       -0.2797414600
   12        1.2078854400
   13        0.1054860700
   14        0.0000000000
   15        0.2613156700
   16       -1.1283254100
   17       -0.0985380000
   18       -0.0000000000
   19        0.0000000000
   20       -0.0000000000
   21       -0.0000000000
   22       -0.0000000000
   23        0.0000000000
 Ene=          0.09802860
 Spin= Alpha
 Occup=        0.00000000
    1        0.0000000000
    2        0.0000000000
    3        0.1689250400
    4        0.0397895500
    5       -0.0076396300
    6        0.0000000000
    7        0.0891688300
    8        0.0210033200
    9       -0.0040326600
   10       -0.0000000000
   11        1.2100174000
   12        0.2850142400
   13       -0.0547230300
   14        0.0000000000
   15       -1.1303169400
   16       -0.2662411500
   17        0.0511185800
   18       -0.0000000000
   19        0.0000000000
   20        0.0000000000
   21       -0.0000000000
   22        0.0000000000
   23       -0.0000000000
 Ene=          0.09802860
 Spin= Alpha
 Occup=        0.00000000
    1        0.0000000000
    2        0.0000000000
    3        0.0107889300
    4       -0.0126028100
    5        0.1729219800
    6       -0.0000000000
    7        0.0056950500
    8       -0.0066525200
    9        0.0912786600
   10       -0.0000000000
   11        0.0772815800
   12       -0.0902744600
   13        1.2386476200
   14        0.0000000000
   15       -0.0721912600
   16        0.0843283400
   17       -1.1570613700
   18       -0.0000000000
   19        0.0000000000
   20       -0.0000000000
   21       -0.0000000000
   22        0.0000000000
   23       -0.0000000000
 Ene=          0.32120500
 Spin= Alpha
 Occup=        0.00000000
    1        0.1008201700
    2        0.1206836400
    3       -0.0000000000
    4        0.0000000000
    5       -0.0000000000
    6       -1.7831282900
    7       -0.0000000000
    8        0.0000000000
    9       -0.0000000000
   10        3.2683135200
   11        0.0000000000
   12       -0.0000000000
   13        0.0000000000
   14       -1.3222167900
   15       -0.0000000000
   16        0.0000000000
   17       -0.0000000000
   18       -0.2606109800
   19       -0.2606109800
   20       -0.2606109800
   21       -0.0000000000
   22        0.0000000000
   23        0.0000000000
 Ene=          0.34580500
 Spin= Alpha
 Occup=        0.00000000
    1       -0.0000000000
    2       -0.0000000000
    3       -0.1413415300
    4        0.1297728200
    5       -0.0098842500
    6        0.0000000000
    7       -0.9771056600
    8        0.8971302100
    9       -0.0683306400
   10       -0.0000000000
   11        1.3277280100
   12       -1.2190543600
   13        0.0928502500
   14        0.0000000000
   15       -0.5520653100
   16        0.5068791300
   17       -0.0386068600
   18       -0.0000000000
   19        0.0000000000
   20        0.0000000000
   21        0.0000000000
   22       -0.0000000000
   23        0.0000000000
 Ene=          0.34580500
 Spin= Alpha
 Occup=        0.00000000
    1       -0.0000000000
    2       -0.0000000000
    3       -0.1286798000
    4       -0.1415288300
    5       -0.0180889700
    6        0.0000000000
    7       -0.8895740700
    8       -0.9784004900
    9       -0.1250505200
   10       -0.0000000000
   11        1.2087867800
   12        1.3294874700
   13        0.1699233600
   14        0.0000000000
   15       -0.5026099000
   16       -0.5527968900
   17       -0.0706536200
   18        0.0000000000
   19       -0.0000000000
   20        0.0000000000
   21       -0.0000000000
   22        0.0000000000
   23       -0.0000000000
 Ene=          0.34580500
 Spin= Alpha
 Occup=        0.00000000
    1       -0.0000000000
    2       -0.0000000000
    3        0.0194985300
    4        0.0066870400
    5       -0.1910267100
    6        0.0000000000
    7        0.1347949400
    8        0.0462280600
    9       -1.3205833800
   10       -0.0000000000
   11       -0.1831644500
   12       -0.0628164300
   13        1.7944584800
   14        0.0000000000
   15        0.0761592300
   16        0.0261188800
   17       -0.7461304300
   18        0.0000000000
   19        0.0000000000
   20        0.0000000000
   21       -0.0000000000
   22        0.0000000000
   23       -0.0000000000
 Ene=          0.69285100
 Spin= Alpha
 Occup=        0.00000000
    1        0.0000000000
    2       -0.0000000000
    3        0.0000000000
    4       -0.0000000000
    5        0.0000000000
    6        0.0000000000
    7       -0.0000000000
    8        0.0000000000
    9        0.0000000000
   10        0.0000000000
   11        0.0000000000
   12       -0.0000000000
   13       -0.0000000000
   14        0.0000000000
   15       -0.0000000000
   16        0.0000000000
   17        0.0000000000
   18        0.0698954900
   19       -0.0898716700
   20        0.0199761800
   21       -0.9608513400
   22       -0.2377892700
   23       -0.1063645200
 Ene=          0.69285100
 Spin= Alpha
 Occup=        0.00000000
    1        0.0000000000
    2        0.0000000000
    3       -0.0000000000
    4       -0.0000000000
    5       -0.0000000000
    6       -0.0000000000
    7        0.0000000000
    8        0.0000000000
    9        0.0000000000
   10        0.0000000000
   11       -0.0000000000
   12       -0.0000000000
   13       -0.0000000000
   14       -0.0000000000
   15        0.0000000000
   16        0.0000000000
   17        0.0000000000
   18       -0.6666100700
   19       -0.2882844900
   20        0.9548945500
   21       -0.0534829400
   22        0.1692944500
   23        0.0945794500
 Ene=          0.69285100
 Spin= Alpha
 Occup=        0.00000000
    1       -0.0000000000
    2       -0.0000000000
    3       -0.0000000000
    4       -0.0000000000
    5       -0.0000000000
    6        0.0000000000
    7        0.0000000000
    8        0.0000000000
    9        0.0000000000
   10       -0.0000000000
   11       -0.0000000000
   12       -0.0000000000
   13        0.0000000000
   14        0.0000000000
   15        0.0000000000
   16        0.0000000000
   17       -0.0000000000
   18        0.0406506600
   19        0.1754254300
   20       -0.2160760900
   21       -0.2509581700
   22        0.6710664100
   23        0.6587459600
 Ene=          0.69285100
 Spin= Alpha
 Occup=        0.00000000
    1       -0.0000000000
    2        0.0000000000
    3       -0.0000000000
    4        0.0000000000
    5        0.0000000000
    6        0.0000000000
    7        0.0000000000
    8        0.0000000000
    9       -0.0000000000
   10       -0.0000000000
   11       -0.0000000000
   12       -0.0000000000
   13        0.0000000000
   14        0.0000000000
   15       -0.0000000000
   16        0.0000000000
   17       -0.0000000000
   18        0.6913603100
   19       -0.8517171200
   20        0.1603568100
   21        0.0208209200
   22        0.3688610100
   23       -0.2099946700
 Ene=          0.69285100
 Spin= Alpha
 Occup=        0.00000000
    1       -0.0000000000
    2        0.0000000000
    3       -0.0000000000
    4       -0.0000000000
    5        0.0000000000
    6       -0.0000000000
    7        0.0000000000
    8        0.0000000000
    9        0.0000000000
   10        0.0000000000
   11       -0.0000000000
   12       -0.0000000000
   13       -0.0000000000
   14       -0.0000000000
   15        0.0000000000
   16        0.0000000000
   17        0.0000000000
   18       -0.2666722500
   19        0.3906648300
   20       -0.1239925800
   21       -0.1024244700
   22        0.5730681300
   23       -0.7083059400
 Ene=          1.19879000
 Spin= Alpha
 Occup=        0.00000000
    1        0.0000000000
    2       -0.0000000000
    3        0.8780316000
    4       -1.1058769500
    5       -0.0486218600
    6        0.0000000000
    7       -1.0716213500
    8        1.3497023900
    9        0.0593420900
   10        0.0000000000
   11        0.6600066700
   12       -0.8312755100
   13       -0.0365485200
   14        0.0000000000
   15       -0.2290718000
   16        0.2885149300
   17        0.0126850800
   18        0.0000000000
   19       -0.0000000000
   20        0.0000000000
   21        0.0000000000
   22       -0.0000000000
   23        0.0000000000
 Ene=          1.19879000
 Spin= Alpha
 Occup=        0.00000000
    1       -0.0000000000
    2       -0.0000000000
    3        0.2889358100
    4        0.1690543700
    5        1.3726631500
    6        0.0000000000
    7       -0.3526408200
    8       -0.2063277400
    9       -1.6753100200
   10       -0.0000000000
   11        0.2171898700
   12        0.1270763100
   13        1.0318157600
   14        0.0000000000
   15       -0.0753811700
   16       -0.0441050100
   17       -0.3581174300
   18        0.0000000000
   19       -0.0000000000
   20       -0.0000000000
   21       -0.0000000000
   22        0.0000000000
   23        0.0000000000
 Ene=          1.19879000
 Spin= Alpha
 Occup=        0.00000000
    1       -0.0000000000
    2        0.0000000000
    3       -1.0685710100
    4       -0.8629740400
    5        0.3312086900
    6        0.0000000000
    7        1.3041711800
    8        1.0532438800
    9       -0.4042340900
   10       -0.0000000000
   11       -0.8032330500
   12       -0.6486880700
   13        0.2489659200
   14        0.0000000000
   15        0.2787820900
   16        0.2251434000
   17       -0.0864098400
   18        0.0000000000
   19       -0.0000000000
   20       -0.0000000000
   21        0.0000000000
   22       -0.0000000000
   23       -0.0000000000
 Ene=          1.41474000
 Spin= Alpha
 Occup=        0.00000000
    1       -0.1662730500
    2       -0.7329297200
    3       -0.0000000000
    4        0.0000000000
    5       -0.0000000000
    6        2.9007812900
    7        0.0000000000
    8       -0.0000000000
    9        0.0000000000
   10        1.4063145600
   11       -0.0000000000
   12        0.0000000000
   13       -0.0000000000
   14       -0.4975681300
   15        0.0000000000
   16       -0.0000000000
   17        0.0000000000
   18       -1.6779525900
   19       -1.6779525900
   20       -1.6779525900
   21       -0.0000000000
   22        0.0000000000
   23       -0.0000000000
 Ene=         10.06660000
 Spin= Alpha
 Occup=        0.00000000
    1       -1.9197775700
    2        2.5708991400
    3       -0.0000000000
    4        0.0000000000
    5       -0.0000000000
    6       -2.0284875200
    7       -0.0000000000
    8        0.0000000000
    9        0.0000000000
   10       -0.3771729500
   11       -0.0000000000
   12        0.0000000000
   13       -0.0000000000
   14        0.1489960700
   15       -0.0000000000
   16        0.0000000000
   17        0.0000000000
   18        0.8743518600
   19        0.8743518600
   20        0.8743518600
   21       -0.0000000000
   22       -0.0000000000
   23        0.0000000000

