 Molden2AIM, Version 3.1.0 (02/25/2015)           Time: Tue Oct 15 16:19:43 2024
GAUSSIAN             23 MOL ORBITALS     36 PRIMITIVES        1 NUCLEI
  Be   1    (CENTRE  1)   0.00000000  0.00000000  0.00000000  CHARGE =  4.0
CENTRE ASSIGNMENTS    1  1  1  1  1  1  1  1  1  1  1  1  1  1  1  1  1  1  1  1
CENTRE ASSIGNMENTS    1  1  1  1  1  1  1  1  1  1  1  1  1  1  1  1
TYPE ASSIGNMENTS      1  1  1  1  1  1  1  1  1  2  2  2  3  3  3  4  4  4  1  2
TYPE ASSIGNMENTS      3  4  1  2  3  4  1  2  3  4  5  6  7  8  9 10
EXPONENTS  0.1682800D+04 0.2517150D+03 0.5741160D+02 0.1651710D+02 0.4853640D+01
EXPONENTS  0.6268630D+00 0.8309380D+01 0.1740750D+01 0.4858160D+00 0.8309380D+01
EXPONENTS  0.1740750D+01 0.4858160D+00 0.8309380D+01 0.1740750D+01 0.4858160D+00
EXPONENTS  0.8309380D+01 0.1740750D+01 0.4858160D+00 0.1636130D+00 0.1636130D+00
EXPONENTS  0.1636130D+00 0.1636130D+00 0.5672850D-01 0.5672850D-01 0.5672850D-01
EXPONENTS  0.5672850D-01 0.2070000D-01 0.2070000D-01 0.2070000D-01 0.2070000D-01
EXPONENTS  0.2550000D+00 0.2550000D+00 0.2550000D+00 0.2550000D+00 0.2550000D+00
EXPONENTS  0.2550000D+00
MO    1     MO 0.0        OCC NO =    2.0000000  ORB. ENERGY =   -4.732350
  0.25521829D+00  0.47250026D+00  0.76520818D+00  0.98130917D+00  0.89021338D+00
  0.43252251D-01  0.16914790D+00  0.44714604D+00 -0.55021664D-03 -0.00000000D+00
 -0.00000000D+00 -0.00000000D+00  0.00000000D+00  0.00000000D+00  0.00000000D+00
 -0.00000000D+00 -0.00000000D+00 -0.00000000D+00 -0.89643041D-03 -0.00000000D+00
  0.00000000D+00  0.00000000D+00  0.11806761D-03 -0.00000000D+00  0.00000000D+00
 -0.00000000D+00 -0.16682616D-04 -0.00000000D+00  0.00000000D+00  0.00000000D+00
  0.10104598D-03  0.10104598D-03  0.10104598D-03  0.00000000D+00 -0.00000000D+00
  0.00000000D+00
MO    2     MO 0.0        OCC NO =    2.0000000  ORB. ENERGY =   -0.309258
  0.46904712D-01  0.86837386D-01  0.14063205D+00  0.18034767D+00  0.16360584D+00
  0.79490165D-02  0.70355481D-01  0.18598619D+00 -0.22885744D-03 -0.00000000D+00
 -0.00000000D+00 -0.00000000D+00  0.00000000D+00  0.00000000D+00  0.00000000D+00
 -0.00000000D+00 -0.00000000D+00 -0.00000000D+00 -0.10707449D+00 -0.00000000D+00
  0.00000000D+00  0.00000000D+00 -0.41432647D-01  0.00000000D+00 -0.00000000D+00
  0.00000000D+00 -0.86918638D-03  0.00000000D+00 -0.00000000D+00 -0.00000000D+00
  0.26695230D-03  0.26695230D-03  0.26695230D-03 -0.00000000D+00 -0.00000000D+00
 -0.00000000D+00
MO    3     MO 0.0        OCC NO =    0.0000000  ORB. ENERGY =    0.029566
  0.00000000D+00  0.00000000D+00  0.00000000D+00  0.00000000D+00  0.00000000D+00
  0.00000000D+00  0.00000000D+00  0.00000000D+00 -0.00000000D+00  0.45420619D-01
  0.38651611D-01  0.30422173D-01 -0.31308471D-01 -0.26642588D-01 -0.20970030D-01
  0.20938032D-02  0.17817649D-02  0.14024037D-02  0.00000000D+00  0.24333916D-01
 -0.16773389D-01  0.11217471D-02 -0.00000000D+00  0.65044737D-04 -0.44835265D-04
  0.29984099D-05  0.00000000D+00  0.82678832D-02 -0.56990589D-02  0.38113352D-03
 -0.00000000D+00  0.00000000D+00  0.00000000D+00  0.00000000D+00 -0.00000000D+00
  0.00000000D+00
MO    4     MO 0.0        OCC NO =    0.0000000  ORB. ENERGY =    0.029566
 -0.00000000D+00 -0.00000000D+00 -0.00000000D+00 -0.00000000D+00 -0.00000000D+00
 -0.00000000D+00 -0.00000000D+00 -0.00000000D+00  0.00000000D+00 -0.28278183D-01
 -0.24063902D-01 -0.18940380D-01 -0.42438326D-01 -0.36113767D-01 -0.28424670D-01
 -0.21141674D-01 -0.17990942D-01 -0.14160434D-01 -0.00000000D+00 -0.15149923D-01
 -0.22736162D-01 -0.11326567D-01  0.00000000D+00 -0.40495897D-04 -0.60774035D-04
 -0.30276126D-04 -0.00000000D+00 -0.51474572D-02 -0.77250179D-02 -0.38484037D-02
 -0.00000000D+00  0.00000000D+00 -0.00000000D+00 -0.00000000D+00 -0.00000000D+00
 -0.00000000D+00
MO    5     MO 0.0        OCC NO =    0.0000000  ORB. ENERGY =    0.029566
 -0.00000000D+00 -0.00000000D+00 -0.00000000D+00 -0.00000000D+00 -0.00000000D+00
 -0.00000000D+00 -0.00000000D+00 -0.00000000D+00  0.00000000D+00  0.13599595D-01
  0.11572855D-01  0.91088417D-02  0.16321931D-01  0.13889483D-01  0.10932229D-01
 -0.50953730D-01 -0.43360126D-01 -0.34128183D-01 -0.00000000D+00  0.72859261D-02
  0.87444095D-02 -0.27298259D-01  0.00000000D+00  0.19475458D-04  0.23374022D-04
 -0.72968542D-04 -0.00000000D+00  0.24755238D-02  0.29710697D-02 -0.92750717D-02
  0.00000000D+00 -0.00000000D+00 -0.00000000D+00 -0.00000000D+00  0.00000000D+00
  0.00000000D+00
MO    6     MO 0.0        OCC NO =    0.0000000  ORB. ENERGY =    0.051096
 -0.13143472D-01 -0.24333264D-01 -0.39407413D-01 -0.50536385D-01 -0.45845048D-01
 -0.22274452D-02 -0.25298005D-01 -0.66875809D-01  0.82291198D-04  0.00000000D+00
  0.00000000D+00  0.00000000D+00  0.00000000D+00  0.00000000D+00  0.00000000D+00
  0.00000000D+00  0.00000000D+00  0.00000000D+00  0.22693499D-02 -0.00000000D+00
  0.00000000D+00  0.00000000D+00  0.12306647D+00  0.00000000D+00 -0.00000000D+00
  0.00000000D+00 -0.71930210D-01 -0.00000000D+00  0.00000000D+00  0.00000000D+00
 -0.73998878D-02 -0.73998878D-02 -0.73998878D-02 -0.00000000D+00 -0.00000000D+00
  0.00000000D+00
MO    7     MO 0.0        OCC NO =    0.0000000  ORB. ENERGY =    0.098029
  0.00000000D+00  0.00000000D+00  0.00000000D+00  0.00000000D+00  0.00000000D+00
  0.00000000D+00  0.00000000D+00  0.00000000D+00 -0.00000000D+00 -0.28377952D-01
 -0.24148802D-01 -0.19007204D-01  0.12253211D+00  0.10427122D+00  0.82070505D-01
  0.10700873D-01  0.91061286D-02  0.71673137D-02 -0.00000000D+00 -0.30576701D-02
  0.13202602D-01  0.11529991D-02  0.00000000D+00 -0.11039478D-01  0.47666960D-01
  0.41628123D-02  0.00000000D+00  0.29246135D-02 -0.12628082D-01 -0.11028254D-02
 -0.00000000D+00  0.00000000D+00 -0.00000000D+00 -0.00000000D+00 -0.00000000D+00
  0.00000000D+00
MO    8     MO 0.0        OCC NO =    0.0000000  ORB. ENERGY =    0.098029
  0.00000000D+00  0.00000000D+00  0.00000000D+00  0.00000000D+00  0.00000000D+00
  0.00000000D+00  0.00000000D+00  0.00000000D+00 -0.00000000D+00  0.12274838D+00
  0.10445526D+00  0.82215361D-01  0.28912842D-01  0.24603978D-01  0.19365466D-01
 -0.55512920D-02 -0.47239863D-02 -0.37181873D-02  0.00000000D+00  0.13225906D-01
  0.31153030D-02 -0.59814153D-03 -0.00000000D+00  0.47751094D-01  0.11247559D-01
 -0.21595430D-02  0.00000000D+00 -0.12650371D-01 -0.29797388D-02  0.57211298D-03
 -0.00000000D+00  0.00000000D+00  0.00000000D+00 -0.00000000D+00  0.00000000D+00
 -0.00000000D+00
MO    9     MO 0.0        OCC NO =    0.0000000  ORB. ENERGY =    0.098029
  0.00000000D+00  0.00000000D+00  0.00000000D+00  0.00000000D+00  0.00000000D+00
  0.00000000D+00  0.00000000D+00  0.00000000D+00 -0.00000000D+00  0.78397123D-02
  0.66713646D-02  0.52509431D-02 -0.91577575D-02 -0.77929823D-02 -0.61337536D-02
  0.12565274D+00  0.10692678D+00  0.84160661D-01 -0.00000000D+00  0.84471438D-03
 -0.98673046D-03  0.13538845D-01 -0.00000000D+00  0.30497743D-02 -0.35625143D-02
  0.48880933D-01  0.00000000D+00 -0.80795587D-03  0.94379261D-03 -0.12949691D-01
 -0.00000000D+00  0.00000000D+00 -0.00000000D+00 -0.00000000D+00  0.00000000D+00
 -0.00000000D+00
MO   10     MO 0.0        OCC NO =    0.0000000  ORB. ENERGY =    0.321205
  0.43152785D-01  0.79891227D-01  0.12938283D+00  0.16592159D+00  0.15051894D+00
  0.73131714D-02  0.45724491D-01  0.12087365D+00 -0.14873596D-03 -0.00000000D+00
 -0.00000000D+00 -0.00000000D+00  0.00000000D+00  0.00000000D+00  0.00000000D+00
 -0.00000000D+00 -0.00000000D+00 -0.00000000D+00 -0.32693095D+00 -0.00000000D+00
  0.00000000D+00 -0.00000000D+00  0.27076017D+00  0.00000000D+00 -0.00000000D+00
  0.00000000D+00 -0.51426920D-01 -0.00000000D+00  0.00000000D+00 -0.00000000D+00
 -0.39250707D-01 -0.39250707D-01 -0.39250707D-01 -0.00000000D+00  0.00000000D+00
  0.00000000D+00
MO   11     MO 0.0        OCC NO =    0.0000000  ORB. ENERGY =    0.345805
 -0.00000000D+00 -0.00000000D+00 -0.00000000D+00 -0.00000000D+00 -0.00000000D+00
 -0.00000000D+00 -0.00000000D+00 -0.00000000D+00  0.00000000D+00 -0.10270499D+00
 -0.87398925D-01 -0.68790541D-01  0.94298654D-01  0.80245381D-01  0.63160081D-01
 -0.71823319D-02 -0.61119532D-02 -0.48106378D-02  0.00000000D+00 -0.14492853D+00
  0.13306622D+00 -0.10135095D-01 -0.00000000D+00  0.52396325D-01 -0.48107721D-01
  0.36641630D-02  0.00000000D+00 -0.61786483D-02  0.56729301D-02 -0.43208332D-03
 -0.00000000D+00  0.00000000D+00  0.00000000D+00  0.00000000D+00 -0.00000000D+00
  0.00000000D+00
MO   12     MO 0.0        OCC NO =    0.0000000  ORB. ENERGY =    0.345805
 -0.00000000D+00 -0.00000000D+00 -0.00000000D+00 -0.00000000D+00 -0.00000000D+00
 -0.00000000D+00 -0.00000000D+00 -0.00000000D+00  0.00000000D+00 -0.93504417D-01
 -0.79569509D-01 -0.62628111D-01 -0.10284109D+00 -0.87514742D-01 -0.68881699D-01
 -0.13144243D-01 -0.11185364D-01 -0.88038528D-02  0.00000000D+00 -0.13194546D+00
 -0.14512058D+00 -0.18548033D-01 -0.00000000D+00  0.47702530D-01  0.52465759D-01
  0.67057105D-02  0.00000000D+00 -0.56251494D-02 -0.61868361D-02 -0.79074679D-03
  0.00000000D+00 -0.00000000D+00  0.00000000D+00 -0.00000000D+00  0.00000000D+00
 -0.00000000D+00
MO   13     MO 0.0        OCC NO =    0.0000000  ORB. ENERGY =    0.345805
 -0.00000000D+00 -0.00000000D+00 -0.00000000D+00 -0.00000000D+00 -0.00000000D+00
 -0.00000000D+00 -0.00000000D+00 -0.00000000D+00  0.00000000D+00  0.14168492D-01
  0.12056970D-01  0.94898819D-02  0.48590981D-02  0.41349496D-02  0.32545643D-02
 -0.13880843D+00 -0.11812189D+00 -0.92972184D-01  0.00000000D+00  0.19993367D-01
  0.68567453D-02 -0.19587462D+00 -0.00000000D+00 -0.72282456D-02 -0.24789340D-02
  0.70814978D-01  0.00000000D+00  0.85236491D-03  0.29231935D-03 -0.83506018D-02
  0.00000000D+00  0.00000000D+00  0.00000000D+00 -0.00000000D+00  0.00000000D+00
 -0.00000000D+00
MO   14     MO 0.0        OCC NO =    0.0000000  ORB. ENERGY =    0.692851
  0.00000000D+00  0.00000000D+00  0.00000000D+00  0.00000000D+00  0.00000000D+00
  0.00000000D+00 -0.00000000D+00 -0.00000000D+00  0.00000000D+00  0.00000000D+00
  0.00000000D+00  0.00000000D+00 -0.00000000D+00 -0.00000000D+00 -0.00000000D+00
  0.00000000D+00  0.00000000D+00  0.00000000D+00  0.00000000D+00 -0.00000000D+00
  0.00000000D+00  0.00000000D+00  0.00000000D+00  0.00000000D+00 -0.00000000D+00
 -0.00000000D+00  0.00000000D+00 -0.00000000D+00  0.00000000D+00  0.00000000D+00
  0.10526983D-01 -0.13535602D-01  0.30086191D-02 -0.25065225D+00 -0.62030839D-01
 -0.27746754D-01
MO   15     MO 0.0        OCC NO =    0.0000000  ORB. ENERGY =    0.692851
  0.00000000D+00  0.00000000D+00  0.00000000D+00  0.00000000D+00  0.00000000D+00
  0.00000000D+00  0.00000000D+00  0.00000000D+00 -0.00000000D+00 -0.00000000D+00
 -0.00000000D+00 -0.00000000D+00 -0.00000000D+00 -0.00000000D+00 -0.00000000D+00
 -0.00000000D+00 -0.00000000D+00 -0.00000000D+00 -0.00000000D+00  0.00000000D+00
  0.00000000D+00  0.00000000D+00  0.00000000D+00 -0.00000000D+00 -0.00000000D+00
 -0.00000000D+00 -0.00000000D+00  0.00000000D+00  0.00000000D+00  0.00000000D+00
 -0.10039837D+00 -0.43418623D-01  0.14381699D+00 -0.13951814D-01  0.44162955D-01
  0.24672445D-01
MO   16     MO 0.0        OCC NO =    0.0000000  ORB. ENERGY =    0.692851
 -0.00000000D+00 -0.00000000D+00 -0.00000000D+00 -0.00000000D+00 -0.00000000D+00
 -0.00000000D+00 -0.00000000D+00 -0.00000000D+00  0.00000000D+00 -0.00000000D+00
 -0.00000000D+00 -0.00000000D+00 -0.00000000D+00 -0.00000000D+00 -0.00000000D+00
 -0.00000000D+00 -0.00000000D+00 -0.00000000D+00  0.00000000D+00  0.00000000D+00
  0.00000000D+00  0.00000000D+00 -0.00000000D+00 -0.00000000D+00 -0.00000000D+00
  0.00000000D+00  0.00000000D+00  0.00000000D+00  0.00000000D+00 -0.00000000D+00
  0.61224095D-02  0.26420883D-01 -0.32543292D-01 -0.65466140D-01  0.17505757D+00
  0.17184360D+00
MO   17     MO 0.0        OCC NO =    0.0000000  ORB. ENERGY =    0.692851
 -0.00000000D+00 -0.00000000D+00 -0.00000000D+00 -0.00000000D+00 -0.00000000D+00
 -0.00000000D+00  0.00000000D+00  0.00000000D+00 -0.00000000D+00 -0.00000000D+00
 -0.00000000D+00 -0.00000000D+00  0.00000000D+00  0.00000000D+00  0.00000000D+00
  0.00000000D+00  0.00000000D+00  0.00000000D+00  0.00000000D+00  0.00000000D+00
  0.00000000D+00 -0.00000000D+00 -0.00000000D+00 -0.00000000D+00 -0.00000000D+00
  0.00000000D+00  0.00000000D+00 -0.00000000D+00  0.00000000D+00 -0.00000000D+00
  0.10412601D+00 -0.12827740D+00  0.24151393D-01  0.54314441D-02  0.96222835D-01
 -0.54780207D-01
MO   18     MO 0.0        OCC NO =    0.0000000  ORB. ENERGY =    0.692851
 -0.00000000D+00 -0.00000000D+00 -0.00000000D+00 -0.00000000D+00 -0.00000000D+00
 -0.00000000D+00  0.00000000D+00  0.00000000D+00 -0.00000000D+00 -0.00000000D+00
 -0.00000000D+00 -0.00000000D+00 -0.00000000D+00 -0.00000000D+00 -0.00000000D+00
  0.00000000D+00  0.00000000D+00  0.00000000D+00 -0.00000000D+00  0.00000000D+00
  0.00000000D+00  0.00000000D+00  0.00000000D+00 -0.00000000D+00 -0.00000000D+00
 -0.00000000D+00 -0.00000000D+00  0.00000000D+00  0.00000000D+00  0.00000000D+00
 -0.40163597D-01  0.58838161D-01 -0.18674564D-01 -0.26718934D-01  0.14949327D+00
 -0.18477205D+00
MO   19     MO 0.0        OCC NO =    0.0000000  ORB. ENERGY =    1.198790
  0.00000000D+00  0.00000000D+00  0.00000000D+00  0.00000000D+00  0.00000000D+00
  0.00000000D+00 -0.00000000D+00 -0.00000000D+00  0.00000000D+00  0.63801648D+00
  0.54293326D+00  0.42733561D+00 -0.80357896D+00 -0.68382206D+00 -0.53822732D+00
 -0.35330788D-01 -0.30065461D-01 -0.23664128D-01  0.00000000D+00 -0.15894750D+00
  0.20019368D+00  0.88018748D-02  0.00000000D+00  0.26045940D-01 -0.32804747D-01
 -0.14423196D-02  0.00000000D+00 -0.25637439D-02  0.32290243D-02  0.14196988D-03
  0.00000000D+00 -0.00000000D+00  0.00000000D+00  0.00000000D+00 -0.00000000D+00
  0.00000000D+00
MO   20     MO 0.0        OCC NO =    0.0000000  ORB. ENERGY =    1.198790
 -0.00000000D+00 -0.00000000D+00 -0.00000000D+00 -0.00000000D+00 -0.00000000D+00
 -0.00000000D+00 -0.00000000D+00 -0.00000000D+00  0.00000000D+00  0.20995350D+00
  0.17866425D+00  0.14062428D+00  0.12284236D+00  0.10453524D+00  0.82278305D-01
  0.99743758D+00  0.84879004D+00  0.66807145D+00  0.00000000D+00 -0.52305208D-01
 -0.30603420D-01 -0.24848921D+00 -0.00000000D+00  0.85709957D-02  0.50148311D-02
  0.40718697D-01  0.00000000D+00 -0.84365696D-03 -0.49361795D-03 -0.40080071D-02
  0.00000000D+00 -0.00000000D+00 -0.00000000D+00 -0.00000000D+00  0.00000000D+00
  0.00000000D+00
MO   21     MO 0.0        OCC NO =    0.0000000  ORB. ENERGY =    1.198790
 -0.00000000D+00 -0.00000000D+00 -0.00000000D+00 -0.00000000D+00 -0.00000000D+00
 -0.00000000D+00  0.00000000D+00  0.00000000D+00 -0.00000000D+00 -0.77647082D+00
 -0.66075383D+00 -0.52007062D+00 -0.62707499D+00 -0.53362238D+00 -0.42000713D+00
  0.24067084D+00  0.20480381D+00  0.16119837D+00  0.00000000D+00  0.19344030D+00
  0.15622168D+00 -0.59957744D-01 -0.00000000D+00 -0.31698104D-01 -0.25599273D-01
  0.98249787D-02  0.00000000D+00  0.31200955D-02  0.25197778D-02 -0.96708850D-03
  0.00000000D+00 -0.00000000D+00 -0.00000000D+00  0.00000000D+00 -0.00000000D+00
 -0.00000000D+00
MO   22     MO 0.0        OCC NO =    0.0000000  ORB. ENERGY =    1.414740
 -0.71167754D-01 -0.13175695D+00 -0.21337871D+00 -0.27363858D+00 -0.24823647D+00
 -0.12060913D-01 -0.27769165D+00 -0.73408371D+00  0.90329565D-03 -0.00000000D+00
 -0.00000000D+00 -0.00000000D+00  0.00000000D+00  0.00000000D+00  0.00000000D+00
 -0.00000000D+00 -0.00000000D+00 -0.00000000D+00  0.53184911D+00  0.00000000D+00
 -0.00000000D+00  0.00000000D+00  0.11650473D+00 -0.00000000D+00  0.00000000D+00
 -0.00000000D+00 -0.19352648D-01  0.00000000D+00 -0.00000000D+00  0.00000000D+00
 -0.25271700D+00 -0.25271700D+00 -0.25271700D+00 -0.00000000D+00  0.00000000D+00
 -0.00000000D+00
MO   23     MO 0.0        OCC NO =    0.0000000  ORB. ENERGY =   10.066600
 -0.82169816D+00 -0.15212570D+01 -0.24636564D+01 -0.31594129D+01 -0.28661218D+01
 -0.13925450D+00  0.97405958D+00  0.25749470D+01 -0.31684921D-02 -0.00000000D+00
 -0.00000000D+00 -0.00000000D+00  0.00000000D+00  0.00000000D+00  0.00000000D+00
 -0.00000000D+00 -0.00000000D+00 -0.00000000D+00 -0.37191679D+00 -0.00000000D+00
  0.00000000D+00  0.00000000D+00 -0.31246516D-01 -0.00000000D+00  0.00000000D+00
 -0.00000000D+00  0.57951231D-02 -0.00000000D+00  0.00000000D+00  0.00000000D+00
  0.13168643D+00  0.13168643D+00  0.13168643D+00 -0.00000000D+00 -0.00000000D+00
  0.00000000D+00
END DATA
 THE  HF ENERGY =    -14.571945868338 THE VIRIAL(-V/T)=   2.00004334


 $MOSPIN $END
 3 3 3 3 3 3 3 3 3 3 3 3 3 3 3 3 3 3 3 3 3 3 3


