[Molden Format]
[Atoms] AU
E+       1       4     0.00000000     0.00000000     0.00000000
E+       2       4     4.63600000     0.00000000     0.00000000
[GTO]
  1 0
s  1 1.00
   1.0000000000E-04   1.0000000000E+00
s  1 1.00
   3.0000000000E-04   1.0000000000E+00
s  1 1.00
   9.0000000000E-04   1.0000000000E+00
s  1 1.00
   2.7000000000E-03   1.0000000000E+00
s  1 1.00
   8.1000000000E-03   1.0000000000E+00
s  1 1.00
   2.4300000000E-02   1.0000000000E+00
s  1 1.00
   7.2900000000E-02   1.0000000000E+00
s  1 1.00
   2.1870000000E-01   1.0000000000E+00
s  1 1.00
   6.5610000000E-01   1.0000000000E+00
s  1 1.00
   1.9683000000E+00   1.0000000000E+00
p  1 1.00
   1.0000000000E-04   1.0000000000E+00
p  1 1.00
   3.0000000000E-04   1.0000000000E+00
p  1 1.00
   9.0000000000E-04   1.0000000000E+00
p  1 1.00
   2.7000000000E-03   1.0000000000E+00
d  1 1.00
   1.0000000000E-04   1.0000000000E+00
d  1 1.00
   3.0000000000E-04   1.0000000000E+00
 
  2 0
s  1 1.00
   1.0000000000E-04   1.0000000000E+00
s  1 1.00
   3.0000000000E-04   1.0000000000E+00
s  1 1.00
   9.0000000000E-04   1.0000000000E+00
s  1 1.00
   2.7000000000E-03   1.0000000000E+00
s  1 1.00
   8.1000000000E-03   1.0000000000E+00
s  1 1.00
   2.4300000000E-02   1.0000000000E+00
s  1 1.00
   7.2900000000E-02   1.0000000000E+00
s  1 1.00
   2.1870000000E-01   1.0000000000E+00
s  1 1.00
   6.5610000000E-01   1.0000000000E+00
s  1 1.00
   1.9683000000E+00   1.0000000000E+00
p  1 1.00
   1.0000000000E-04   1.0000000000E+00
p  1 1.00
   3.0000000000E-04   1.0000000000E+00
p  1 1.00
   9.0000000000E-04   1.0000000000E+00
p  1 1.00
   2.7000000000E-03   1.0000000000E+00
d  1 1.00
   1.0000000000E-04   1.0000000000E+00
d  1 1.00
   3.0000000000E-04   1.0000000000E+00
 
 
[MO]
Ene=    -2.13267E-02
Spin= Alpha
Occup=   1.0000000000
   1       0.00632850
   2       0.00793614
   3      -0.01271690
   4      -0.01037358
   5      -0.16206921
   6      -0.25967110
   7      -0.25615494
   8       0.18891224
   9       0.01373643
  10      -0.00027110
  11       0.00033613
  12      -0.00000000
  13       0.00000000
  14       0.00083751
  15      -0.00000000
  16      -0.00000000
  17       0.02603592
  18       0.00000000
  19      -0.00000000
  20      -0.03027941
  21       0.00000000
  22       0.00000000
  23      -0.00115757
  24      -0.00078949
  25      -0.00078949
  26       0.00000000
  27       0.00000000
  28       0.00000000
  29      -0.00250847
  30      -0.00365498
  31      -0.00365498
  32      -0.00000000
  33       0.00000000
  34      -0.00000000
  35       0.00632850
  36       0.00793614
  37      -0.01271690
  38      -0.01037358
  39      -0.16206921
  40      -0.25967110
  41      -0.25615494
  42       0.18891224
  43       0.01373643
  44      -0.00027110
  45      -0.00033613
  46       0.00000000
  47      -0.00000000
  48      -0.00083751
  49       0.00000000
  50      -0.00000000
  51      -0.02603592
  52      -0.00000000
  53       0.00000000
  54       0.03027941
  55      -0.00000000
  56      -0.00000000
  57      -0.00115757
  58      -0.00078949
  59      -0.00078949
  60      -0.00000000
  61      -0.00000000
  62      -0.00000000
  63      -0.00250847
  64      -0.00365498
  65      -0.00365498
  66       0.00000000
  67      -0.00000000
  68       0.00000000
Ene=     2.12667E-03
Spin= Alpha
Occup=   0.0000000000
   1       0.13072636
   2       0.31508768
   3      -1.09319758
   4       0.50628664
   5      -0.09560903
   6       0.09466723
   7       0.01035213
   8      -0.01629068
   9      -0.00321155
  10       0.00030267
  11       0.00675899
  12      -0.00000000
  13       0.00000000
  14       0.03146283
  15      -0.00000000
  16       0.00000000
  17       0.10938906
  18       0.00000000
  19       0.00000000
  20      -0.10788717
  21      -0.00000000
  22      -0.00000000
  23      -0.01890418
  24      -0.01714159
  25      -0.01714159
  26      -0.00000000
  27       0.00000000
  28       0.00000000
  29      -0.08475279
  30      -0.09232457
  31      -0.09232457
  32       0.00000000
  33      -0.00000000
  34      -0.00000000
  35       0.13072636
  36       0.31508768
  37      -1.09319758
  38       0.50628665
  39      -0.09560903
  40       0.09466723
  41       0.01035213
  42      -0.01629068
  43      -0.00321155
  44       0.00030267
  45      -0.00675899
  46       0.00000000
  47      -0.00000000
  48      -0.03146283
  49       0.00000000
  50      -0.00000000
  51      -0.10938906
  52      -0.00000000
  53      -0.00000000
  54       0.10788717
  55       0.00000000
  56       0.00000000
  57      -0.01890418
  58      -0.01714159
  59      -0.01714159
  60       0.00000000
  61      -0.00000000
  62      -0.00000000
  63      -0.08475279
  64      -0.09232457
  65      -0.09232457
  66      -0.00000000
  67       0.00000000
  68      -0.00000000
Ene=     2.92616E-03
Spin= Alpha
Occup=   0.0000000000
   1      -0.00451051
   2      -0.00863887
   3      -0.54590016
   4      -8.15216411
   5       0.39407223
   6       0.01370027
   7       0.03893568
   8      -0.01902593
   9       0.00016811
  10      -0.00019774
  11       0.17549968
  12      -0.00000000
  13       0.00000000
  14       0.15109878
  15       0.00000000
  16       0.00000000
  17      -0.80530397
  18      -0.00000000
  19      -0.00000000
  20      -0.90106265
  21       0.00000000
  22       0.00000000
  23       1.42309357
  24       1.40207407
  25       1.40207407
  26      -0.00000000
  27       0.00000000
  28       0.00000000
  29       2.72284881
  30       2.74531770
  31       2.74531770
  32       0.00000000
  33       0.00000000
  34      -0.00000000
  35       0.00451051
  36       0.00863887
  37       0.54590016
  38       8.15216411
  39      -0.39407223
  40      -0.01370027
  41      -0.03893568
  42       0.01902593
  43      -0.00016811
  44       0.00019774
  45       0.17549968
  46       0.00000000
  47      -0.00000000
  48       0.15109878
  49      -0.00000000
  50      -0.00000000
  51      -0.80530397
  52       0.00000000
  53       0.00000000
  54      -0.90106265
  55      -0.00000000
  56      -0.00000000
  57      -1.42309357
  58      -1.40207407
  59      -1.40207407
  60      -0.00000000
  61       0.00000000
  62      -0.00000000
  63      -2.72284881
  64      -2.74531770
  65      -2.74531770
  66       0.00000000
  67       0.00000000
  68       0.00000000
Ene=     3.41545E-03
Spin= Alpha
Occup=   0.0000000000
   1       0.00000000
   2       0.00000000
   3       0.00000000
   4       0.00000000
   5      -0.00000000
   6       0.00000000
   7      -0.00000000
   8       0.00000000
   9      -0.00000000
  10       0.00000000
  11       0.00000000
  12      -0.00045042
  13      -0.02625020
  14       0.00000000
  15       0.00202045
  16       0.11775116
  17       0.00000000
  18      -0.00980502
  19      -0.57143458
  20       0.00000000
  21      -0.00012536
  22      -0.00730623
  23       0.00000000
  24       0.00000000
  25       0.00000000
  26      -0.00628105
  27      -0.36605848
  28       0.00000000
  29       0.00000000
  30       0.00000000
  31       0.00000000
  32       0.00381462
  33       0.22231511
  34      -0.00000000
  35      -0.00000000
  36      -0.00000000
  37      -0.00000000
  38      -0.00000000
  39       0.00000000
  40      -0.00000000
  41       0.00000000
  42      -0.00000000
  43       0.00000000
  44      -0.00000000
  45      -0.00000000
  46      -0.00045042
  47      -0.02625020
  48       0.00000000
  49       0.00202045
  50       0.11775116
  51       0.00000000
  52      -0.00980502
  53      -0.57143458
  54       0.00000000
  55      -0.00012536
  56      -0.00730623
  57      -0.00000000
  58      -0.00000000
  59      -0.00000000
  60       0.00628105
  61       0.36605848
  62      -0.00000000
  63      -0.00000000
  64      -0.00000000
  65      -0.00000000
  66      -0.00381462
  67      -0.22231511
  68       0.00000000
Ene=     3.41545E-03
Spin= Alpha
Occup=   0.0000000000
   1       0.00000000
   2       0.00000000
   3      -0.00000000
   4      -0.00000000
   5       0.00000000
   6      -0.00000000
   7       0.00000000
   8       0.00000000
   9       0.00000000
  10      -0.00000000
  11       0.00000000
  12       0.02625020
  13      -0.00045042
  14       0.00000000
  15      -0.11775116
  16       0.00202045
  17       0.00000000
  18       0.57143458
  19      -0.00980502
  20      -0.00000000
  21       0.00730623
  22      -0.00012536
  23       0.00000000
  24      -0.00000000
  25       0.00000000
  26       0.36605848
  27      -0.00628105
  28      -0.00000000
  29      -0.00000000
  30      -0.00000000
  31      -0.00000000
  32      -0.22231511
  33       0.00381462
  34       0.00000000
  35      -0.00000000
  36      -0.00000000
  37       0.00000000
  38       0.00000000
  39      -0.00000000
  40       0.00000000
  41      -0.00000000
  42      -0.00000000
  43      -0.00000000
  44       0.00000000
  45      -0.00000000
  46       0.02625020
  47      -0.00045042
  48      -0.00000000
  49      -0.11775116
  50       0.00202045
  51      -0.00000000
  52       0.57143458
  53      -0.00980502
  54      -0.00000000
  55       0.00730623
  56      -0.00012536
  57      -0.00000000
  58       0.00000000
  59      -0.00000000
  60      -0.36605848
  61       0.00628105
  62       0.00000000
  63       0.00000000
  64       0.00000000
  65       0.00000000
  66       0.22231511
  67      -0.00381462
  68      -0.00000000
Ene=     6.59934E-03
Spin= Alpha
Occup=   0.0000000000
   1       0.00000000
   2       0.00000000
   3       0.00000000
   4       0.00000000
   5      -0.00000000
   6       0.00000000
   7       0.00000000
   8      -0.00000000
   9      -0.00000000
  10       0.00000000
  11       0.00000000
  12       0.00045831
  13       0.00029203
  14       0.00000000
  15      -0.00121158
  16      -0.00077202
  17       0.00000000
  18       5.58266715
  19       3.55728530
  20       0.00000000
  21       0.91620622
  22       0.58380821
  23      -0.00000000
  24      -0.00000000
  25      -0.00000000
  26      -0.03050223
  27      -0.01943607
  28       0.00000000
  29      -0.00000000
  30      -0.00000000
  31      -0.00000000
  32       0.09024637
  33       0.05750514
  34       0.00000000
  35       0.00000000
  36       0.00000000
  37      -0.00000000
  38      -0.00000000
  39       0.00000000
  40      -0.00000000
  41      -0.00000000
  42       0.00000000
  43       0.00000000
  44      -0.00000000
  45      -0.00000000
  46      -0.00045831
  47      -0.00029203
  48      -0.00000000
  49       0.00121158
  50       0.00077202
  51      -0.00000000
  52      -5.58266715
  53      -3.55728530
  54       0.00000000
  55      -0.91620622
  56      -0.58380821
  57       0.00000000
  58       0.00000000
  59       0.00000000
  60      -0.03050223
  61      -0.01943607
  62      -0.00000000
  63       0.00000000
  64      -0.00000000
  65      -0.00000000
  66       0.09024637
  67       0.05750514
  68      -0.00000000
Ene=     6.59934E-03
Spin= Alpha
Occup=   0.0000000000
   1       0.00000000
   2       0.00000000
   3      -0.00000000
   4      -0.00000000
   5      -0.00000000
   6       0.00000000
   7       0.00000000
   8      -0.00000000
   9       0.00000000
  10      -0.00000000
  11       0.00000000
  12       0.00029203
  13      -0.00045831
  14       0.00000000
  15      -0.00077202
  16       0.00121158
  17       0.00000000
  18       3.55728530
  19      -5.58266715
  20       0.00000000
  21       0.58380821
  22      -0.91620622
  23      -0.00000000
  24      -0.00000000
  25      -0.00000000
  26      -0.01943607
  27       0.03050223
  28       0.00000000
  29      -0.00000000
  30      -0.00000000
  31      -0.00000000
  32       0.05750514
  33      -0.09024637
  34      -0.00000000
  35       0.00000000
  36       0.00000000
  37      -0.00000000
  38       0.00000000
  39      -0.00000000
  40       0.00000000
  41       0.00000000
  42      -0.00000000
  43       0.00000000
  44      -0.00000000
  45      -0.00000000
  46      -0.00029203
  47       0.00045831
  48      -0.00000000
  49       0.00077202
  50      -0.00121158
  51      -0.00000000
  52      -3.55728530
  53       5.58266715
  54      -0.00000000
  55      -0.58380821
  56       0.91620622
  57       0.00000000
  58       0.00000000
  59       0.00000000
  60      -0.01943607
  61       0.03050223
  62      -0.00000000
  63       0.00000000
  64       0.00000000
  65       0.00000000
  66       0.05750514
  67      -0.09024637
  68       0.00000000
Ene=     6.63878E-03
Spin= Alpha
Occup=   0.0000000000
   1      -0.27065599
   2      -0.56446520
   3       0.52647441
   4       0.46197693
   5       0.01190062
   6      -0.00312949
   7      -0.00155730
   8       0.00109142
   9       0.00000149
  10       0.00001120
  11      -0.01492148
  12       0.00000000
  13      -0.00000000
  14      -0.05459728
  15       0.00000000
  16      -0.00000000
  17      -5.57977403
  18       0.00000000
  19      -0.00000000
  20      -1.01016589
  21       0.00000000
  22      -0.00000000
  23       0.07257499
  24       0.02088622
  25       0.02088622
  26      -0.00000000
  27       0.00000000
  28      -0.00000000
  29       0.06289474
  30       0.22167725
  31       0.22167725
  32       0.00000000
  33      -0.00000000
  34      -0.00000000
  35      -0.27065599
  36      -0.56446520
  37       0.52647441
  38       0.46197692
  39       0.01190062
  40      -0.00312949
  41      -0.00155730
  42       0.00109142
  43       0.00000149
  44       0.00001120
  45       0.01492148
  46      -0.00000000
  47       0.00000000
  48       0.05459728
  49      -0.00000000
  50       0.00000000
  51       5.57977403
  52      -0.00000000
  53       0.00000000
  54       1.01016589
  55      -0.00000000
  56       0.00000000
  57       0.07257499
  58       0.02088622
  59       0.02088622
  60      -0.00000000
  61       0.00000000
  62       0.00000000
  63       0.06289474
  64       0.22167725
  65       0.22167725
  66       0.00000000
  67      -0.00000000
  68       0.00000000
Ene=     7.36163E-03
Spin= Alpha
Occup=   0.0000000000
   1      -0.00392350
   2      -0.00815346
   3       0.07372129
   4      -0.34265900
   5      -0.08896176
   6      -0.24864981
   7      -0.06554543
   8       0.04214738
   9       0.00270907
  10       0.00000477
  11       0.15266434
  12      -0.00000000
  13       0.00000000
  14       0.14650355
  15       0.00000000
  16       0.00000000
  17      -0.77620729
  18       0.00000000
  19       0.00000000
  20       0.67424066
  21       0.00000000
  22       0.00000000
  23       1.23680579
  24       1.21596658
  25       1.21596658
  26      -0.00000000
  27       0.00000000
  28       0.00000000
  29       2.42549542
  30       2.44791139
  31       2.44791139
  32       0.00000000
  33       0.00000000
  34      -0.00000000
  35       0.00392350
  36       0.00815346
  37      -0.07372129
  38       0.34265900
  39       0.08896176
  40       0.24864981
  41       0.06554543
  42      -0.04214738
  43      -0.00270907
  44      -0.00000477
  45       0.15266434
  46       0.00000000
  47      -0.00000000
  48       0.14650355
  49      -0.00000000
  50      -0.00000000
  51      -0.77620729
  52      -0.00000000
  53       0.00000000
  54       0.67424066
  55      -0.00000000
  56      -0.00000000
  57      -1.23680579
  58      -1.21596658
  59      -1.21596658
  60      -0.00000000
  61      -0.00000000
  62      -0.00000000
  63      -2.42549542
  64      -2.44791139
  65      -2.44791139
  66       0.00000000
  67       0.00000000
  68       0.00000000
Ene=     8.67983E-03
Spin= Alpha
Occup=   0.0000000000
   1      -0.08248208
   2       0.15242970
   3      -0.89722069
   4       1.47931335
   5      -0.66037054
   6       0.04868517
   7      -0.12041267
   8       0.06575362
   9       0.00095104
  10       0.00047137
  11      -0.00422325
  12      -0.00000000
  13       0.00000000
  14       0.01122649
  15      -0.00000000
  16       0.00000000
  17       0.84904608
  18      -0.00000000
  19       0.00000000
  20      -0.48201966
  21      -0.00000000
  22       0.00000000
  23       0.00719770
  24       0.01724948
  25       0.01724948
  26       0.00000000
  27       0.00000000
  28       0.00000000
  29       0.02506360
  30      -0.00343222
  31      -0.00343222
  32      -0.00000000
  33      -0.00000000
  34      -0.00000000
  35      -0.08248208
  36       0.15242970
  37      -0.89722069
  38       1.47931339
  39      -0.66037054
  40       0.04868517
  41      -0.12041267
  42       0.06575362
  43       0.00095104
  44       0.00047137
  45       0.00422325
  46       0.00000000
  47      -0.00000000
  48      -0.01122649
  49       0.00000000
  50      -0.00000000
  51      -0.84904608
  52       0.00000000
  53      -0.00000000
  54       0.48201965
  55       0.00000000
  56      -0.00000000
  57       0.00719770
  58       0.01724948
  59       0.01724948
  60      -0.00000000
  61      -0.00000000
  62      -0.00000000
  63       0.02506360
  64      -0.00343222
  65      -0.00343222
  66       0.00000000
  67       0.00000000
  68       0.00000000
Ene=     8.74738E-03
Spin= Alpha
Occup=   0.0000000000
   1       0.00000000
   2       0.00000000
   3      -0.00000000
   4      -0.00000000
   5       0.00000000
   6      -0.00000000
   7       0.00000000
   8      -0.00000000
   9       0.00000000
  10      -0.00000000
  11      -0.00000000
  12       0.02405196
  13      -0.00002476
  14      -0.00000000
  15      -0.10989087
  16       0.00011314
  17      -0.00000000
  18       0.61937292
  19      -0.00063766
  20      -0.00000000
  21      -0.73994292
  22       0.00076179
  23      -0.00000000
  24      -0.00000000
  25      -0.00000000
  26       0.31749601
  27      -0.00032687
  28      -0.00000000
  29      -0.00000000
  30      -0.00000000
  31      -0.00000000
  32      -0.18919852
  33       0.00019479
  34       0.00000000
  35      -0.00000000
  36      -0.00000000
  37       0.00000000
  38       0.00000000
  39      -0.00000000
  40       0.00000000
  41       0.00000000
  42      -0.00000000
  43      -0.00000000
  44       0.00000000
  45      -0.00000000
  46       0.02405196
  47      -0.00002476
  48      -0.00000000
  49      -0.10989087
  50       0.00011314
  51      -0.00000000
  52       0.61937292
  53      -0.00063766
  54      -0.00000000
  55      -0.73994292
  56       0.00076179
  57       0.00000000
  58       0.00000000
  59       0.00000000
  60      -0.31749601
  61       0.00032687
  62       0.00000000
  63       0.00000000
  64       0.00000000
  65       0.00000000
  66       0.18919852
  67      -0.00019479
  68      -0.00000000
Ene=     8.74738E-03
Spin= Alpha
Occup=   0.0000000000
   1       0.00000000
   2       0.00000000
   3       0.00000000
   4       0.00000000
   5      -0.00000000
   6       0.00000000
   7      -0.00000000
   8       0.00000000
   9      -0.00000000
  10       0.00000000
  11      -0.00000000
  12      -0.00002476
  13      -0.02405196
  14       0.00000000
  15       0.00011314
  16       0.10989087
  17       0.00000000
  18      -0.00063766
  19      -0.61937292
  20       0.00000000
  21       0.00076179
  22       0.73994292
  23      -0.00000000
  24      -0.00000000
  25      -0.00000000
  26      -0.00032687
  27      -0.31749601
  28      -0.00000000
  29      -0.00000000
  30      -0.00000000
  31      -0.00000000
  32       0.00019479
  33       0.18919852
  34       0.00000000
  35      -0.00000000
  36      -0.00000000
  37      -0.00000000
  38      -0.00000000
  39       0.00000000
  40      -0.00000000
  41      -0.00000000
  42       0.00000000
  43       0.00000000
  44       0.00000000
  45      -0.00000000
  46      -0.00002476
  47      -0.02405196
  48       0.00000000
  49       0.00011314
  50       0.10989087
  51       0.00000000
  52      -0.00063766
  53      -0.61937292
  54       0.00000000
  55       0.00076179
  56       0.73994292
  57       0.00000000
  58       0.00000000
  59       0.00000000
  60       0.00032687
  61       0.31749601
  62       0.00000000
  63       0.00000000
  64       0.00000000
  65       0.00000000
  66      -0.00019479
  67      -0.18919852
  68      -0.00000000
Ene=     1.32612E-02
Spin= Alpha
Occup=   0.0000000000
   1      -0.00465010
   2      -0.00783756
   3      38.58263577
   4     486.54499797
   5      -1.04913910
   6       0.23665883
   7      -0.00819852
   8      -0.00642123
   9      -0.00295257
  10       0.00035463
  11       0.17746653
  12       0.00000001
  13      -0.00000000
  14       0.16855895
  15      -0.00000002
  16      -0.00000001
  17       1.81266235
  18      -0.00000000
  19      -0.00000000
  20      59.85290177
  21       0.00000000
  22       0.00000000
  23       1.67189029
  24       1.28755236
  25       1.28755236
  26       0.00000000
  27      -0.00000000
  28      -0.00000000
  29       2.66297116
  30       3.09664436
  31       3.09664436
  32      -0.00000000
  33      -0.00000000
  34       0.00000000
  35       0.00465010
  36       0.00783756
  37     -38.58263577
  38    -486.54499797
  39       1.04913910
  40      -0.23665883
  41       0.00819852
  42       0.00642123
  43       0.00295257
  44      -0.00035463
  45       0.17746655
  46      -0.00000001
  47       0.00000000
  48       0.16855892
  49       0.00000002
  50       0.00000001
  51       1.81266235
  52       0.00000000
  53       0.00000000
  54      59.85290177
  55      -0.00000000
  56      -0.00000000
  57      -1.67189029
  58      -1.28755236
  59      -1.28755236
  60       0.00000000
  61      -0.00000000
  62       0.00000000
  63      -2.66297116
  64      -3.09664436
  65      -3.09664436
  66      -0.00000000
  67      -0.00000000
  68      -0.00000000
Ene=     1.44722E-02
Spin= Alpha
Occup=   0.0000000000
   1       0.00000000
   2       0.00000000
   3      -0.00000000
   4      -0.00000000
   5       0.00000000
   6      -0.00000000
   7       0.00000000
   8      -0.00000000
   9       0.00000000
  10      -0.00000000
  11       0.00000000
  12       0.00008567
  13      -0.00039526
  14       0.00000000
  15      -0.00007019
  16       0.00032386
  17       0.00000000
  18       1.71679378
  19      -7.92083552
  20      -0.00000000
  21      -1.12451929
  22       5.18823664
  23       0.00000000
  24       0.00000000
  25       0.00000000
  26      -0.00752855
  27       0.03473476
  28       0.00000000
  29       0.00000000
  30      -0.00000000
  31      -0.00000000
  32       0.02276475
  33      -0.10503059
  34      -0.00000000
  35       0.00000000
  36       0.00000000
  37       0.00000000
  38       0.00000000
  39       0.00000000
  40      -0.00000000
  41       0.00000000
  42      -0.00000000
  43       0.00000000
  44      -0.00000000
  45       0.00000000
  46      -0.00008567
  47       0.00039526
  48      -0.00000000
  49       0.00007019
  50      -0.00032386
  51      -0.00000000
  52      -1.71679378
  53       7.92083552
  54      -0.00000000
  55       1.12451929
  56      -5.18823664
  57      -0.00000000
  58      -0.00000000
  59      -0.00000000
  60      -0.00752855
  61       0.03473476
  62      -0.00000000
  63      -0.00000000
  64       0.00000000
  65      -0.00000000
  66       0.02276475
  67      -0.10503059
  68       0.00000000
Ene=     1.44722E-02
Spin= Alpha
Occup=   0.0000000000
   1      -0.00000000
   2      -0.00000000
   3      -0.00000000
   4      -0.00000000
   5       0.00000000
   6      -0.00000000
   7      -0.00000000
   8       0.00000000
   9       0.00000000
  10      -0.00000000
  11      -0.00000000
  12      -0.00039526
  13      -0.00008567
  14      -0.00000000
  15       0.00032386
  16       0.00007019
  17      -0.00000000
  18      -7.92083552
  19      -1.71679378
  20      -0.00000000
  21       5.18823664
  22       1.12451929
  23      -0.00000000
  24      -0.00000000
  25      -0.00000000
  26       0.03473476
  27       0.00752855
  28      -0.00000000
  29      -0.00000000
  30      -0.00000000
  31      -0.00000000
  32      -0.10503059
  33      -0.02276475
  34      -0.00000000
  35      -0.00000000
  36      -0.00000000
  37       0.00000000
  38       0.00000000
  39      -0.00000000
  40       0.00000000
  41       0.00000000
  42      -0.00000000
  43      -0.00000000
  44       0.00000000
  45      -0.00000000
  46       0.00039526
  47       0.00008567
  48      -0.00000000
  49      -0.00032386
  50      -0.00007019
  51      -0.00000000
  52       7.92083552
  53       1.71679378
  54      -0.00000000
  55      -5.18823664
  56      -1.12451929
  57       0.00000000
  58       0.00000000
  59       0.00000000
  60       0.03473476
  61       0.00752855
  62       0.00000000
  63       0.00000000
  64       0.00000000
  65       0.00000000
  66      -0.10503059
  67      -0.02276475
  68       0.00000000
Ene=     1.48722E-02
Spin= Alpha
Occup=   0.0000000000
   1      -0.50622489
   2      -0.90148646
   3       1.31260083
   4      -0.04292431
   5      -0.60444593
   6       0.11192283
   7      -0.06236764
   8       0.02575036
   9      -0.00159067
  10       0.00045570
  11      -0.02686513
  12       0.00000000
  13      -0.00000000
  14      -0.09244909
  15       0.00000000
  16      -0.00000000
  17      -6.70498022
  18       0.00000000
  19      -0.00000000
  20       4.35017814
  21      -0.00000000
  22       0.00000000
  23       0.10425546
  24       0.05682697
  25       0.05682697
  26      -0.00000000
  27      -0.00000000
  28      -0.00000000
  29       0.19104150
  30       0.34565575
  31       0.34565575
  32       0.00000000
  33       0.00000000
  34       0.00000000
  35      -0.50622489
  36      -0.90148646
  37       1.31260082
  38      -0.04292436
  39      -0.60444593
  40       0.11192283
  41      -0.06236764
  42       0.02575036
  43      -0.00159067
  44       0.00045570
  45       0.02686513
  46      -0.00000000
  47       0.00000000
  48       0.09244909
  49      -0.00000000
  50       0.00000000
  51       6.70498022
  52      -0.00000000
  53       0.00000000
  54      -4.35017814
  55       0.00000000
  56      -0.00000000
  57       0.10425546
  58       0.05682697
  59       0.05682697
  60       0.00000000
  61       0.00000000
  62       0.00000000
  63       0.19104150
  64       0.34565575
  65       0.34565575
  66      -0.00000000
  67      -0.00000000
  68      -0.00000000
Ene=     1.92285E-02
Spin= Alpha
Occup=   0.0000000000
   1      -0.00423512
   2      -0.00226379
   3      12.93318038
   4     163.24399489
   5      -3.68959030
   6      -0.05238357
   7      -0.19586796
   8       0.09437362
   9      -0.00034447
  10       0.00091896
  11       0.16156326
  12       0.00000000
  13      -0.00000000
  14       0.02398348
  15      -0.00000001
  16      -0.00000000
  17       0.96964783
  18       0.00000000
  19       0.00000000
  20      19.18988129
  21      -0.00000000
  22      -0.00000000
  23       1.55801056
  24       1.31149200
  25       1.31149200
  26       0.00000000
  27      -0.00000000
  28      -0.00000000
  29       1.90290219
  30       2.17422942
  31       2.17422942
  32      -0.00000000
  33      -0.00000000
  34      -0.00000000
  35       0.00423512
  36       0.00226379
  37     -12.93318038
  38    -163.24399489
  39       3.68959030
  40       0.05238357
  41       0.19586796
  42      -0.09437362
  43       0.00034447
  44      -0.00091896
  45       0.16156327
  46      -0.00000000
  47       0.00000000
  48       0.02398347
  49       0.00000001
  50       0.00000000
  51       0.96964783
  52      -0.00000000
  53      -0.00000000
  54      19.18988129
  55       0.00000000
  56       0.00000000
  57      -1.55801056
  58      -1.31149200
  59      -1.31149200
  60       0.00000000
  61      -0.00000000
  62       0.00000000
  63      -1.90290219
  64      -2.17422942
  65      -2.17422942
  66      -0.00000000
  67      -0.00000000
  68       0.00000000
Ene=     2.50846E-02
Spin= Alpha
Occup=   0.0000000000
   1      -2.94641658
   2      -2.99432657
   3       3.85329703
   4      -1.48734748
   5       0.09955913
   6       0.17174611
   7       0.02219982
   8      -0.02883157
   9      -0.00515963
  10       0.00044458
  11      -0.15336432
  12       0.00000000
  13      -0.00000000
  14      -0.34085436
  15       0.00000000
  16      -0.00000000
  17      -1.11477888
  18       0.00000000
  19      -0.00000000
  20       0.73692069
  21      -0.00000000
  22       0.00000000
  23       0.43083239
  24       0.44810851
  25       0.44810851
  26       0.00000000
  27      -0.00000000
  28      -0.00000000
  29       1.39834477
  30       1.40287621
  31       1.40287621
  32      -0.00000000
  33       0.00000000
  34       0.00000000
  35      -2.94641658
  36      -2.99432657
  37       3.85329703
  38      -1.48734745
  39       0.09955913
  40       0.17174611
  41       0.02219982
  42      -0.02883157
  43      -0.00515963
  44       0.00044458
  45       0.15336432
  46      -0.00000000
  47       0.00000000
  48       0.34085436
  49      -0.00000000
  50       0.00000000
  51       1.11477888
  52      -0.00000000
  53       0.00000000
  54      -0.73692070
  55       0.00000000
  56      -0.00000000
  57       0.43083239
  58       0.44810851
  59       0.44810851
  60      -0.00000000
  61       0.00000000
  62       0.00000000
  63       1.39834477
  64       1.40287621
  65       1.40287621
  66       0.00000000
  67      -0.00000000
  68      -0.00000000
Ene=     3.42953E-02
Spin= Alpha
Occup=   0.0000000000
   1       0.04667250
   2       0.04101738
   3      -5.48879297
   4     -62.67690352
   5      -0.47658555
   6      -0.34039747
   7      -0.01573809
   8       0.02188417
   9       0.00422857
  10      -0.00038291
  11      -1.78373352
  12      -0.00000000