[Molden Format]
[Title]
 Molden2AIM, Version 3.1.0 (02/25/2015)           Time: Thu Oct 17 18:55:48 2024

[Atoms] AU
BE       1       4     0.00000000     0.00000000     0.00000000
BE       2       4     0.00000000     0.00000000     4.63600000
[GTO]
    1 0
 S   6 1.0
    0.1682800000D+04      0.2285740532D-02
    0.2517150000D+03      0.1759380410D-01
    0.5741160000D+02      0.8633152009D-01
    0.1651710000D+02      0.2818350656D+00
    0.4853640000D+01      0.6405941491D+00
    0.6268630000D+00      0.1444670336D+00
 S   3 1.0
    0.8309380000D+01      0.1086210323D+00
    0.1740750000D+01      0.9273012759D+00
    0.4858160000D+00     -0.2971690884D-02
 P   3 1.0
    0.8309380000D+01      0.3613440323D-01
    0.1740750000D+01      0.2169580194D+00
    0.4858160000D+00      0.8418390753D+00
 S   1 1.0
    0.1636130000D+00      0.1000000000D+01
 P   1 1.0
    0.1636130000D+00      0.1000000000D+01
 S   1 1.0
    0.5672850000D-01      0.1000000000D+01
 P   1 1.0
    0.5672850000D-01      0.1000000000D+01
 S   1 1.0
    0.2070000000D-01      0.1000000000D+01
 P   1 1.0
    0.2070000000D-01      0.1000000000D+01
 D   1 1.0
    0.2550000000D+00      0.1000000000D+01

    2 0
 S   6 1.0
    0.1682800000D+04      0.2285740532D-02
    0.2517150000D+03      0.1759380410D-01
    0.5741160000D+02      0.8633152009D-01
    0.1651710000D+02      0.2818350656D+00
    0.4853640000D+01      0.6405941491D+00
    0.6268630000D+00      0.1444670336D+00
 S   3 1.0
    0.8309380000D+01      0.1086210323D+00
    0.1740750000D+01      0.9273012759D+00
    0.4858160000D+00     -0.2971690884D-02
 P   3 1.0
    0.8309380000D+01      0.3613440323D-01
    0.1740750000D+01      0.2169580194D+00
    0.4858160000D+00      0.8418390753D+00
 S   1 1.0
    0.1636130000D+00      0.1000000000D+01
 P   1 1.0
    0.1636130000D+00      0.1000000000D+01
 S   1 1.0
    0.5672850000D-01      0.1000000000D+01
 P   1 1.0
    0.5672850000D-01      0.1000000000D+01
 S   1 1.0
    0.2070000000D-01      0.1000000000D+01
 P   1 1.0
    0.2070000000D-01      0.1000000000D+01
 D   1 1.0
    0.2550000000D+00      0.1000000000D+01


[MO]
 Ene=         -4.73138000
 Spin= Alpha
 Occup=        2.00000000
    1       -0.4215662100
    2       -0.3155165400
    3        0.0000000000
    4        0.0000000000
    5       -0.0002427100
    6        0.0027735800
    7       -0.0000000000
    8       -0.0000000000
    9       -0.0000348100
   10       -0.0009567100
   11        0.0000000000
   12       -0.0000000000
   13       -0.0000272100
   14        0.0002453500
   15       -0.0000000000
   16        0.0000000000
   17        0.0000772000
   18       -0.0002851000
   19       -0.0002851000
   20       -0.0004840500
   21       -0.0000000000
   22        0.0000000000
   23       -0.0000000000
   24       -0.4215662100
   25       -0.3155165400
   26        0.0000000000
   27       -0.0000000000
   28        0.0002427100
   29        0.0027735800
   30        0.0000000000
   31        0.0000000000
   32        0.0000348100
   33       -0.0009567100
   34       -0.0000000000
   35       -0.0000000000
   36        0.0000272100
   37        0.0002453500
   38        0.0000000000
   39        0.0000000000
   40       -0.0000772000
   41       -0.0002851000
   42       -0.0002851000
   43       -0.0004840500
   44       -0.0000000000
   45        0.0000000000
   46        0.0000000000
 Ene=         -4.73135000
 Spin= Alpha
 Occup=        2.00000000
    1        0.4216215700
    2        0.3155953400
    3        0.0000000000
    4        0.0000000000
    5        0.0002476800
    6       -0.0032123900
    7       -0.0000000000
    8       -0.0000000000
    9       -0.0004644900
   10        0.0019711900
   11        0.0000000000
   12        0.0000000000
   13        0.0005641200
   14       -0.0029345800
   15        0.0000000000
   16       -0.0000000000
   17       -0.0009198600
   18        0.0002806800
   19        0.0002806800
   20        0.0001380100
   21       -0.0000000000
   22       -0.0000000000
   23        0.0000000000
   24       -0.4216215700
   25       -0.3155953400
   26        0.0000000000
   27       -0.0000000000
   28        0.0002476800
   29        0.0032123900
   30        0.0000000000
   31        0.0000000000
   32       -0.0004644900
   33       -0.0019711900
   34        0.0000000000
   35       -0.0000000000
   36        0.0005641200
   37        0.0029345800
   38       -0.0000000000
   39        0.0000000000
   40       -0.0009198600
   41       -0.0002806800
   42       -0.0002806800
   43       -0.0001380100
   44       -0.0000000000
   45        0.0000000000
   46        0.0000000000
 Ene=         -0.39567900
 Spin= Alpha
 Occup=        2.00000000
    1        0.0773404300
    2        0.1287649400
    3       -0.0000000000
    4       -0.0000000000
    5       -0.0406841300
    6       -0.4011588200
    7       -0.0000000000
    8       -0.0000000000
    9       -0.0741916900
   10       -0.2344576300
   11        0.0000000000
   12        0.0000000000
   13       -0.0053338800
   14        0.0031565200
   15       -0.0000000000
   16        0.0000000000
   17        0.0033007600
   18        0.0075362400
   19        0.0075362400
   20       -0.0174167100
   21       -0.0000000000
   22        0.0000000000
   23        0.0000000000
   24        0.0773404300
   25        0.1287649400
   26       -0.0000000000
   27        0.0000000000
   28        0.0406841300
   29       -0.4011588200
   30        0.0000000000
   31        0.0000000000
   32        0.0741916900
   33       -0.2344576300
   34       -0.0000000000
   35        0.0000000000
   36        0.0053338800
   37        0.0031565200
   38        0.0000000000
   39        0.0000000000
   40       -0.0033007600
   41        0.0075362400
   42        0.0075362400
   43       -0.0174167100
   44       -0.0000000000
   45        0.0000000000
   46        0.0000000000
 Ene=         -0.24296000
 Spin= Alpha
 Occup=        2.00000000
    1       -0.0755365200
    2       -0.1288757900
    3        0.0000000000
    4       -0.0000000000
    5       -0.0412712600
    6        0.4012062400
    7        0.0000000000
    8       -0.0000000000
    9       -0.0603367000
   10        0.5104554600
   11       -0.0000000000
   12       -0.0000000000
   13       -0.0110461200
   14        0.0666518500
   15        0.0000000000
   16        0.0000000000
   17       -0.0033342400
   18        0.0038377600
   19        0.0038377600
   20       -0.0078383700
   21       -0.0000000000
   22       -0.0000000000
   23       -0.0000000000
   24        0.0755365200
   25        0.1288757900
   26        0.0000000000
   27        0.0000000000
   28       -0.0412712600
   29       -0.4012062400
   30       -0.0000000000
   31        0.0000000000
   32       -0.0603367000
   33       -0.5104554600
   34        0.0000000000
   35       -0.0000000000
   36       -0.0110461200
   37       -0.0666518500
   38       -0.0000000000
   39       -0.0000000000
   40       -0.0033342400
   41       -0.0038377600
   42       -0.0038377600
   43        0.0078383700
   44        0.0000000000
   45       -0.0000000000
   46        0.0000000000
 Ene=          0.00783478
 Spin= Alpha
 Occup=        0.00000000
    1       -0.0012479700
    2       -0.0006618300
    3        0.0000000000
    4        0.0000000000
    5       -0.1092586900
    6        0.0215622500
    7        0.0000000000
    8        0.0000000000
    9       -0.2095522600
   10       -0.0786745000
   11        0.0000000000
   12        0.0000000000
   13       -0.1702827200
   14        0.4668042700
   15        0.0000000000
   16        0.0000000000
   17       -0.3330340300
   18        0.0119643800
   19        0.0119643800
   20       -0.0064556000
   21        0.0000000000
   22        0.0000000000
   23        0.0000000000
   24       -0.0012479700
   25       -0.0006618300
   26        0.0000000000
   27        0.0000000000
   28        0.1092586900
   29        0.0215622500
   30        0.0000000000
   31        0.0000000000
   32        0.2095522600
   33       -0.0786745000
   34        0.0000000000
   35        0.0000000000
   36        0.1702827200
   37        0.4668042700
   38        0.0000000000
   39        0.0000000000
   40        0.3330340300
   41        0.0119643800
   42        0.0119643800
   43       -0.0064556000
   44       -0.0000000000
   45        0.0000000000
   46       -0.0000000000
 Ene=          0.01131300
 Spin= Alpha
 Occup=        0.00000000
    1        0.0000000000
    2        0.0000000000
    3       -0.0137358000
    4        0.0774269000
    5        0.0000000000
    6        0.0000000000
    7       -0.0287281400
    8        0.1619367500
    9        0.0000000000
   10       -0.0000000000
   11       -0.0206101300
   12        0.1161765900
   13       -0.0000000000
   14       -0.0000000000
   15       -0.0591702000
   16        0.3335346100
   17        0.0000000000
   18       -0.0000000000
   19       -0.0000000000
   20        0.0000000000
   21        0.0000000000
   22       -0.0025350800
   23        0.0142898900
   24        0.0000000000
   25       -0.0000000000
   26       -0.0137358000
   27        0.0774269000
   28       -0.0000000000
   29       -0.0000000000
   30       -0.0287281400
   31        0.1619367500
   32       -0.0000000000
   33        0.0000000000
   34       -0.0206101300
   35        0.1161765900
   36       -0.0000000000
   37        0.0000000000
   38       -0.0591702000
   39        0.3335346100
   40       -0.0000000000
   41       -0.0000000000
   42       -0.0000000000
   43        0.0000000000
   44        0.0000000000
   45        0.0025350800
   46       -0.0142898900
 Ene=          0.01131300
 Spin= Alpha
 Occup=        0.00000000
    1        0.0000000000
    2        0.0000000000
    3       -0.0774269000
    4       -0.0137358000
    5       -0.0000000000
    6        0.0000000000
    7       -0.1619367500
    8       -0.0287281400
    9       -0.0000000000
   10       -0.0000000000
   11       -0.1161765900
   12       -0.0206101300
   13       -0.0000000000
   14        0.0000000000
   15       -0.3335346100
   16       -0.0591702000
   17        0.0000000000
   18        0.0000000000
   19        0.0000000000
   20        0.0000000000
   21        0.0000000000
   22       -0.0142898900
   23       -0.0025350800
   24       -0.0000000000
   25       -0.0000000000
   26       -0.0774269000
   27       -0.0137358000
   28        0.0000000000
   29       -0.0000000000
   30       -0.1619367500
   31       -0.0287281400
   32        0.0000000000
   33        0.0000000000
   34       -0.1161765900
   35       -0.0206101300
   36        0.0000000000
   37       -0.0000000000
   38       -0.3335346100
   39       -0.0591702000
   40        0.0000000000
   41        0.0000000000
   42        0.0000000000
   43       -0.0000000000
   44        0.0000000000
   45        0.0142898900
   46        0.0025350800
 Ene=          0.04887100
 Spin= Alpha
 Occup=        0.00000000
    1        0.0181952300
    2        0.0311179700
    3       -0.0000000000
    4       -0.0000000000
    5        0.0129457300
    6       -0.1243294500
    7        0.0000000000
    8       -0.0000000000
    9       -0.0551409400
   10        0.2335761200
   11       -0.0000000000
   12        0.0000000000
   13        0.4991608000
   14       -7.7765742700
   15        0.0000000000
   16       -0.0000000000
   17       -3.5347508900
   18       -0.0087629100
   19       -0.0087629100
   20        0.0081446100
   21        0.0000000000
   22       -0.0000000000
   23        0.0000000000
   24       -0.0181952300
   25       -0.0311179700
   26       -0.0000000000
   27        0.0000000000
   28        0.0129457300
   29        0.1243294500
   30       -0.0000000000
   31        0.0000000000
   32       -0.0551409400
   33       -0.2335761200
   34        0.0000000000
   35       -0.0000000000
   36        0.4991608000
   37        7.7765742700
   38       -0.0000000000
   39        0.0000000000
   40       -3.5347508900
   41        0.0087629100
   42        0.0087629100
   43       -0.0081446100
   44        0.0000000000
   45       -0.0000000000
   46        0.0000000000
 Ene=          0.05537030
 Spin= Alpha
 Occup=        0.00000000
    1       -0.0000000000
    2       -0.0000000000
    3        0.0001718600
    4       -0.0338811300
    5        0.0000000000
    6        0.0000000000
    7        0.0006490700
    8       -0.1279588400
    9        0.0000000000
   10        0.0000000000
   11       -0.0006760000
   12        0.1332679700
   13       -0.0000000000
   14        0.0000000000
   15        0.0082611200
   16       -1.6286051500
   17        0.0000000000
   18       -0.0000000000
   19       -0.0000000000
   20       -0.0000000000
   21        0.0000000000
   22       -0.0000483700
   23        0.0095357800
   24        0.0000000000
   25        0.0000000000
   26       -0.0001718600
   27        0.0338811300
   28       -0.0000000000
   29       -0.0000000000
   30       -0.0006490700
   31        0.1279588400
   32        0.0000000000
   33       -0.0000000000
   34        0.0006760000
   35       -0.1332679700
   36       -0.0000000000
   37       -0.0000000000
   38       -0.0082611200
   39        1.6286051500
   40        0.0000000000
   41        0.0000000000
   42        0.0000000000
   43        0.0000000000
   44        0.0000000000
   45       -0.0000483700
   46        0.0095357800
 Ene=          0.05537030
 Spin= Alpha
 Occup=        0.00000000
    1       -0.0000000000
    2       -0.0000000000
    3        0.0338811300
    4        0.0001718600
    5       -0.0000000000
    6        0.0000000000
    7        0.1279588400
    8        0.0006490700
    9        0.0000000000
   10        0.0000000000
   11       -0.1332679700
   12       -0.0006760000
   13       -0.0000000000
   14       -0.0000000000
   15        1.6286051500
   16        0.0082611200
   17        0.0000000000
   18       -0.0000000000
   19       -0.0000000000
   20       -0.0000000000
   21       -0.0000000000
   22       -0.0095357800
   23       -0.0000483700
   24        0.0000000000
   25        0.0000000000
   26       -0.0338811300
   27       -0.0001718600
   28       -0.0000000000
   29       -0.0000000000
   30       -0.1279588400
   31       -0.0006490700
   32        0.0000000000
   33       -0.0000000000
   34        0.1332679700
   35        0.0006760000
   36       -0.0000000000
   37        0.0000000000
   38       -1.6286051500
   39       -0.0082611200
   40        0.0000000000
   41        0.0000000000
   42        0.0000000000
   43        0.0000000000
   44        0.0000000000
   45       -0.0095357800
   46       -0.0000483700
 Ene=          0.06346490
 Spin= Alpha
 Occup=        0.00000000
    1        0.0207228600
    2        0.0453696400
    3       -0.0000000000
    4        0.0000000000
    5        0.0681656700
    6        0.0099013800
    7        0.0000000000
    8        0.0000000000
    9        0.0911918700
   10       -1.1846568400
   11       -0.0000000000
   12       -0.0000000000
   13        0.2745743200
   14        1.0034695400
   15        0.0000000000
   16        0.0000000000
   17        0.2340074800
   18        0.0355739800
   19        0.0355739800
   20        0.0335720000
   21        0.0000000000
   22       -0.0000000000
   23       -0.0000000000
   24        0.0207228600
   25        0.0453696400
   26       -0.0000000000
   27       -0.0000000000
   28       -0.0681656700
   29        0.0099013800
   30       -0.0000000000
   31       -0.0000000000
   32       -0.0911918700
   33       -1.1846568400
   34       -0.0000000000
   35        0.0000000000
   36       -0.2745743200
   37        1.0034695400
   38       -0.0000000000
   39       -0.0000000000
   40       -0.2340074800
   41        0.0355739800
   42        0.0355739800
   43        0.0335720000
   44        0.0000000000
   45       -0.0000000000
   46        0.0000000000
 Ene=          0.07666490
 Spin= Alpha
 Occup=        0.00000000
    1       -0.0018188400
    2       -0.0022582900
    3       -0.0000000000
    4       -0.0000000000
    5       -0.0867479500
    6        0.0430160600
    7       -0.0000000000
    8       -0.0000000000
    9       -0.0313551500
   10       -0.0747993700
   11       -0.0000000000
   12       -0.0000000000
   13       -0.5672054000
   14       -0.2475696200
   15        0.0000000000
   16        0.0000000000
   17        1.4792743700
   18        0.0147358100
   19        0.0147358100
   20       -0.0166192300
   21        0.0000000000
   22       -0.0000000000
   23       -0.0000000000
   24       -0.0018188400
   25       -0.0022582900
   26       -0.0000000000
   27       -0.0000000000
   28        0.0867479500
   29        0.0430160600
   30       -0.0000000000
   31       -0.0000000000
   32        0.0313551500
   33       -0.0747993700
   34       -0.0000000000
   35       -0.0000000000
   36        0.5672054000
   37       -0.2475696200
   38        0.0000000000
   39        0.0000000000
   40       -1.4792743700
   41        0.0147358100
   42        0.0147358100
   43       -0.0166192300
   44        0.0000000000
   45        0.0000000000
   46        0.0000000000
 Ene=          0.07829080
 Spin= Alpha
 Occup=        0.00000000
    1        0.0000000000
    2        0.0000000000
    3        0.1031702900
    4       -0.0125591400
    5       -0.0000000000
    6        0.0000000000
    7        0.0436506600
    8       -0.0053136900
    9       -0.0000000000
   10       -0.0000000000
   11        0.7016922700
   12       -0.0854184800
   13       -0.0000000000
   14        0.0000000000
   15       -0.7228494700
   16        0.0879939900
   17        0.0000000000
   18        0.0000000000
   19        0.0000000000
   20        0.0000000000
   21       -0.0000000000
   22        0.0147673400
   23       -0.0017976600
   24       -0.0000000000
   25       -0.0000000000
   26        0.1031702900
   27       -0.0125591400
   28        0.0000000000
   29        0.0000000000
   30        0.0436506600
   31       -0.0053136900
   32       -0.0000000000
   33        0.0000000000
   34        0.7016922700
   35       -0.0854184800
   36        0.0000000000
   37       -0.0000000000
   38       -0.7228494700
   39        0.0879939900
   40        0.0000000000
   41       -0.0000000000
   42        0.0000000000
   43       -0.0000000000
   44        0.0000000000
   45       -0.0147673400
   46        0.0017976600
 Ene=          0.07829080
 Spin= Alpha
 Occup=        0.00000000
    1       -0.0000000000
    2       -0.0000000000
    3       -0.0125591400
    4       -0.1031702900
    5        0.0000000000
    6       -0.0000000000
    7       -0.0053136900
    8       -0.0436506600
    9        0.0000000000
   10        0.0000000000
   11       -0.0854184800
   12       -0.7016922700
   13        0.0000000000
   14       -0.0000000000
   15        0.0879939900
   16        0.7228494700
   17       -0.0000000000
   18       -0.0000000000
   19       -0.0000000000
   20        0.0000000000
   21        0.0000000000
   22       -0.0017976600
   23       -0.0147673400
   24        0.0000000000
   25        0.0000000000
   26       -0.0125591400
   27       -0.1031702900
   28       -0.0000000000
   29       -0.0000000000
   30       -0.0053136900
   31       -0.0436506600
   32       -0.0000000000
   33       -0.0000000000
   34       -0.0854184800
   35       -0.7016922700
   36       -0.0000000000
   37        0.0000000000
   38        0.0879939900
   39        0.7228494700
   40       -0.0000000000
   41        0.0000000000
   42        0.0000000000
   43        0.0000000000
   44        0.0000000000
   45        0.0017976600
   46        0.0147673400
 Ene=          0.10556600
 Spin= Alpha
 Occup=        0.00000000
    1       -0.0162485900
    2       -0.0380121700
    3       -0.0000000000
    4        0.0000000000
    5       -0.0213601200
    6       -0.0752675600
    7        0.0000000000
    8        0.0000000000
    9        0.0458244400
   10        1.7456170900
   11       -0.0000000000
   12        0.0000000000
   13       -0.1499513000
   14      -21.0259124300
   15        0.0000000000
   16       -0.0000000000
   17       -6.8578392800
   18       -0.0429692100
   19       -0.0429692100
   20       -0.0233483900
   21        0.0000000000
   22        0.0000000000
   23        0.0000000000
   24        0.0162485900
   25        0.0380121700
   26        0.0000000000
   27       -0.0000000000
   28       -0.0213601200
   29        0.0752675600
   30        0.0000000000
   31       -0.0000000000
   32        0.0458244400
   33       -1.7456170900
   34        0.0000000000
   35       -0.0000000000
   36       -0.1499513000
   37       21.0259124300
   38       -0.0000000000
   39        0.0000000000
   40       -6.8578392800
   41        0.0429692100
   42        0.0429692100
   43        0.0233483900
   44        0.0000000000
   45        0.0000000000
   46        0.0000000000
 Ene=          0.12792300
 Spin= Alpha
 Occup=        0.00000000
    1        0.0000000000
    2        0.0000000000
    3       -0.1365460200
    4        0.0047847800
    5        0.0000000000
    6        0.0000000000
    7       -0.0916764600
    8        0.0032124900
    9       -0.0000000000
   10       -0.0000000000
   11       -1.1770407100
   12        0.0412453400
   13        0.0000000000
   14        0.0000000000
   15        1.3953383300
   16       -0.0488948200
   17        0.0000000000
   18        0.0000000000
   19        0.0000000000
   20        0.0000000000
   21        0.0000000000
   22        0.0051211200
   23       -0.0001794500
   24       -0.0000000000
   25       -0.0000000000
   26        0.1365460200
   27       -0.0047847800
   28        0.0000000000
   29       -0.0000000000
   30        0.0916764600
   31       -0.0032124900
   32       -0.0000000000
   33        0.0000000000
   34        1.1770407100
   35       -0.0412453400
   36        0.0000000000
   37       -0.0000000000
   38       -1.3953383300
   39        0.0488948200
   40        0.0000000000
   41       -0.0000000000
   42       -0.0000000000
   43       -0.0000000000
   44       -0.0000000000
   45        0.0051211200
   46       -0.0001794500
 Ene=          0.12792300
 Spin= Alpha
 Occup=        0.00000000
    1        0.0000000000
    2        0.0000000000
    3        0.0047847800
    4        0.1365460200
    5        0.0000000000
    6       -0.0000000000
    7        0.0032124900
    8        0.0916764600
    9       -0.0000000000
   10       -0.0000000000
   11        0.0412453400
   12        1.1770407100
   13        0.0000000000
   14        0.0000000000
   15       -0.0488948200
   16       -1.3953383300
   17        0.0000000000
   18        0.0000000000
   19        0.0000000000
   20        0.0000000000
   21        0.0000000000
   22       -0.0001794500
   23       -0.0051211200
   24       -0.0000000000
   25       -0.0000000000
   26       -0.0047847800
   27       -0.1365460200
   28        0.0000000000
   29        0.0000000000
   30       -0.0032124900
   31       -0.0916764600
   32       -0.0000000000
   33        0.0000000000
   34       -0.0412453400
   35       -1.1770407100
   36        0.0000000000
   37       -0.0000000000
   38        0.0488948200
   39        1.3953383300
   40        0.0000000000
   41       -0.0000000000
   42       -0.0000000000
   43       -0.0000000000
   44        0.0000000000
   45       -0.0001794500
   46       -0.0051211200
 Ene=          0.20320800
 Spin= Alpha
 Occup=        0.00000000
    1        0.0344790600
    2        0.0651029900
    3       -0.0000000000
    4        0.0000000000
    5       -0.0901802700
    6       -0.0712007600
    7       -0.0000000000
    8        0.0000000000
    9        0.0527274900
   10       -3.1812572700
   11        0.0000000000
   12        0.0000000000
   13       -2.8501539700
   14        3.7096673000
   15        0.0000000000
   16       -0.0000000000
   17        1.7963852500
   18        0.0092308400
   19        0.0092308400
   20        0.0285164000
   21       -0.0000000000
   22       -0.0000000000
   23       -0.0000000000
   24       -0.0344790600
   25       -0.0651029900
   26        0.0000000000
   27       -0.0000000000
   28       -0.0901802700
   29        0.0712007600
   30       -0.0000000000
   31       -0.0000000000
   32        0.0527274900
   33        3.1812572700
   34        0.0000000000
   35       -0.0000000000
   36       -2.8501539700
   37       -3.7096673000
   38       -0.0000000000
   39        0.0000000000
   40        1.7963852500
   41       -0.0092308400
   42       -0.0092308400
   43       -0.0285164000
   44       -0.0000000000
   45        0.0000000000
   46       -0.0000000000
 Ene=          0.29945200
 Spin= Alpha
 Occup=        0.00000000
    1        0.0222911700
    2        0.0191630800
    3       -0.0000000000
    4        0.0000000000
    5       -0.0708936900
    6       -0.6984949700
    7       -0.0000000000
    8        0.0000000000
    9       -0.7092719500
   10        0.9580649800
   11        0.0000000000
   12       -0.0000000000
   13        1.3184863900
   14       -0.2204560900
   15       -0.0000000000
   16        0.0000000000
   17       -0.9011933200
   18       -0.0746851300
   19       -0.0746851300
   20       -0.1393944300
   21       -0.0000000000
   22       -0.0000000000
   23        0.0000000000
   24        0.0222911700
   25        0.0191630800
   26       -0.0000000000
   27       -0.0000000000
   28        0.0708936900
   29       -0.6984949700
   30       -0.0000000000
   31       -0.0000000000
   32        0.7092719500
   33        0.9580649800
   34        0.0000000000
   35        0.0000000000
   36       -1.3184863900
   37       -0.2204560900
   38       -0.0000000000
   39       -0.0000000000
   40        0.9011933200
   41       -0.0746851300
   42       -0.0746851300
   43       -0.1393944300
   44        0.0000000000
   45        0.0000000000
   46       -0.0000000000
 Ene=          0.32773800
 Spin= Alpha
 Occup=        0.00000000
    1        0.0632145900
    2        0.0767851300
    3        0.0000000000
    4        0.0000000000
    5        0.0697216400
    6       -1.1282722600
    7        0.0000000000
    8        0.0000000000
    9        0.4295075800
   10        2.0154756700
   11       -0.0000000000
   12       -0.0000000000
   13       -0.6323084900
   14       -0.7686256100
   15        0.0000000000
   16        0.0000000000
   17        0.1610112600
   18       -0.1537976100
   19       -0.1537976100
   20       -0.1803371000
   21       -0.0000000000
   22        0.0000000000
   23        0.0000000000
   24        0.0632145900
   25        0.0767851300
   26        0.0000000000
   27        0.0000000000
   28       -0.0697216400
   29       -1.1282722600
   30        0.0000000000
   31        0.0000000000
   32       -0.4295075800
   33        2.0154756700
   34       -0.0000000000
   35       -0.0000000000
   36        0.6323084900
   37       -0.7686256100
   38        0.0000000000
   39        0.0000000000
   40       -0.1610112600
   41       -0.1537976100
   42       -0.1537976100
   43       -0.1803371000
   44       -0.0000000000
   45       -0.0000000000
   46       -0.0000000000
 Ene=          0.33256000
 Spin= Alpha
 Occup=        0.00000000
    1       -0.0000000000
    2       -0.0000000000
    3       -0.1168769100
    4        0.0026739800
    5        0.0000000000
    6        0.0000000000
    7       -0.9321179300
    8        0.0213255500
    9        0.0000000000
   10       -0.0000000000
   11        1.1596896700
   12       -0.0265320800
   13       -0.0000000000
   14        0.0000000000
   15       -0.4501002300
   16        0.0102976600
   17        0.0000000000
   18        0.0000000000
   19        0.0000000000
   20        0.0000000000
   21        0.0000000000
   22       -0.0587288700
   23        0.0013436300
   24        0.0000000000
   25        0.0000000000
   26       -0.1168769100
   27        0.0026739800
   28       -0.0000000000
   29       -0.0000000000
   30       -0.9321179300
   31        0.0213255500
   32       -0.0000000000
   33        0.0000000000
   34        1.1596896700
   35       -0.0265320800
   36       -0.0000000000
   37       -0.0000000000
   38       -0.4501002300
   39        0.0102976600
   40       -0.0000000000
   41       -0.0000000000
   42       -0.0000000000
   43       -0.0000000000
   44       -0.0000000000
   45        0.0587288700
   46       -0.0013436300
 Ene=          0.33256000
 Spin= Alpha
 Occup=        0.00000000
    1        0.0000000000
    2        0.0000000000
    3       -0.0026739800
    4       -0.1168769100
    5        0.0000000000
    6       -0.0000000000
    7       -0.0213255500
    8       -0.9321179300
    9        0.0000000000
   10        0.0000000000
   11        0.0265320800
   12        1.1596896700
   13       -0.0000000000
   14       -0.0000000000
   15       -0.0102976600
   16       -0.4501002300
   17       -0.0000000000
   18       -0.0000000000
   19       -0.0000000000
   20       -0.0000000000
   21       -0.0000000000
   22       -0.0013436300
   23       -0.0587288700
   24        0.0000000000
   25        0.0000000000
   26       -0.0026739800
   27       -0.1168769100
   28       -0.0000000000
   29       -0.0000000000
   30       -0.0213255500
   31       -0.9321179300
   32       -0.0000000000
   33        0.0000000000
   34        0.0265320800
   35        1.1596896700
   36        0.0000000000
   37        0.0000000000
   38       -0.0102976600
   39       -0.4501002300
   40       -0.0000000000
   41       -0.0000000000
   42       -0.0000000000
   43       -0.0000000000
   44        0.0000000000
   45        0.0013436300
   46        0.0587288700
 Ene=          0.36018500
 Spin= Alpha
 Occup=        0.00000000
    1        0.0000000000
    2        0.0000000000