[Molden Format]
[Atoms] AU
BE       1       4     0.00000000     0.00000000     0.00000000
BE       2       4     0.00000000     0.00000000     4.63600000
[GTO]
  1 0
s  6 1.00
   1.6828000000E+03   2.2857400000E-03
   2.5171500000E+02   1.7593800000E-02
   5.7411600000E+01   8.6331500000E-02
   1.6517100000E+01   2.8183500000E-01
   4.8536400000E+00   6.4059400000E-01
   6.2686300000E-01   1.4446700000E-01
s  3 1.00
   8.3093800000E+00   1.0862100000E-01
   1.7407500000E+00   9.2730100000E-01
   4.8581600000E-01  -2.9716900000E-03
p  3 1.00
   8.3093800000E+00   3.6134400000E-02
   1.7407500000E+00   2.1695800000E-01
   4.8581600000E-01   8.4183900000E-01
s  1 1.00
   1.6361300000E-01   1.0000000000E+00
p  1 1.00
   1.6361300000E-01   1.0000000000E+00
s  1 1.00
   5.6728500000E-02   1.0000000000E+00
p  1 1.00
   5.6728500000E-02   1.0000000000E+00
s  1 1.00
   2.0700000000E-02   1.0000000000E+00
p  1 1.00
   2.0700000000E-02   1.0000000000E+00
d  1 1.00
   2.5500000000E-01   1.0000000000E+00
 
  2 0
s  6 1.00
   1.6828000000E+03   2.2857400000E-03
   2.5171500000E+02   1.7593800000E-02
   5.7411600000E+01   8.6331500000E-02
   1.6517100000E+01   2.8183500000E-01
   4.8536400000E+00   6.4059400000E-01
   6.2686300000E-01   1.4446700000E-01
s  3 1.00
   8.3093800000E+00   1.0862100000E-01
   1.7407500000E+00   9.2730100000E-01
   4.8581600000E-01  -2.9716900000E-03
p  3 1.00
   8.3093800000E+00   3.6134400000E-02
   1.7407500000E+00   2.1695800000E-01
   4.8581600000E-01   8.4183900000E-01
s  1 1.00
   1.6361300000E-01   1.0000000000E+00
p  1 1.00
   1.6361300000E-01   1.0000000000E+00
s  1 1.00
   5.6728500000E-02   1.0000000000E+00
p  1 1.00
   5.6728500000E-02   1.0000000000E+00
s  1 1.00
   2.0700000000E-02   1.0000000000E+00
p  1 1.00
   2.0700000000E-02   1.0000000000E+00
d  1 1.00
   2.5500000000E-01   1.0000000000E+00
 
 
[MO]
Ene=    -4.73138E+00
Spin= Alpha
Occup=   2.0000000000
   1      -0.42156621
   2      -0.31551654
   3       0.00000000
   4       0.00000000
   5      -0.00024271
   6       0.00277358
   7      -0.00000000
   8      -0.00000000
   9      -0.00003481
  10      -0.00095671
  11       0.00000000
  12      -0.00000000
  13      -0.00002721
  14       0.00024535
  15      -0.00000000
  16       0.00000000
  17       0.00007720
  18      -0.00028510
  19      -0.00028510
  20      -0.00048405
  21      -0.00000000
  22       0.00000000
  23      -0.00000000
  24      -0.42156621
  25      -0.31551654
  26       0.00000000
  27      -0.00000000
  28       0.00024271
  29       0.00277358
  30       0.00000000
  31       0.00000000
  32       0.00003481
  33      -0.00095671
  34      -0.00000000
  35      -0.00000000
  36       0.00002721
  37       0.00024535
  38       0.00000000
  39       0.00000000
  40      -0.00007720
  41      -0.00028510
  42      -0.00028510
  43      -0.00048405
  44      -0.00000000
  45       0.00000000
  46       0.00000000
Ene=    -4.73135E+00
Spin= Alpha
Occup=   2.0000000000
   1       0.42162157
   2       0.31559534
   3       0.00000000
   4       0.00000000
   5       0.00024768
   6      -0.00321239
   7      -0.00000000
   8      -0.00000000
   9      -0.00046449
  10       0.00197119
  11       0.00000000
  12       0.00000000
  13       0.00056412
  14      -0.00293458
  15       0.00000000
  16      -0.00000000
  17      -0.00091986
  18       0.00028068
  19       0.00028068
  20       0.00013801
  21      -0.00000000
  22      -0.00000000
  23       0.00000000
  24      -0.42162157
  25      -0.31559534
  26       0.00000000
  27      -0.00000000
  28       0.00024768
  29       0.00321239
  30       0.00000000
  31       0.00000000
  32      -0.00046449
  33      -0.00197119
  34       0.00000000
  35      -0.00000000
  36       0.00056412
  37       0.00293458
  38      -0.00000000
  39       0.00000000
  40      -0.00091986
  41      -0.00028068
  42      -0.00028068
  43      -0.00013801
  44      -0.00000000
  45       0.00000000
  46       0.00000000
Ene=    -3.95679E-01
Spin= Alpha
Occup=   2.0000000000
   1       0.07734043
   2       0.12876494
   3      -0.00000000
   4      -0.00000000
   5      -0.04068413
   6      -0.40115882
   7      -0.00000000
   8      -0.00000000
   9      -0.07419169
  10      -0.23445763
  11       0.00000000
  12       0.00000000
  13      -0.00533388
  14       0.00315652
  15      -0.00000000
  16       0.00000000
  17       0.00330076
  18       0.00753624
  19       0.00753624
  20      -0.01741671
  21      -0.00000000
  22       0.00000000
  23       0.00000000
  24       0.07734043
  25       0.12876494
  26      -0.00000000
  27       0.00000000
  28       0.04068413
  29      -0.40115882
  30       0.00000000
  31       0.00000000
  32       0.07419169
  33      -0.23445763
  34      -0.00000000
  35       0.00000000
  36       0.00533388
  37       0.00315652
  38       0.00000000
  39       0.00000000
  40      -0.00330076
  41       0.00753624
  42       0.00753624
  43      -0.01741671
  44      -0.00000000
  45       0.00000000
  46       0.00000000
Ene=    -2.42960E-01
Spin= Alpha
Occup=   2.0000000000
   1      -0.07553652
   2      -0.12887579
   3       0.00000000
   4      -0.00000000
   5      -0.04127126
   6       0.40120624
   7       0.00000000
   8      -0.00000000
   9      -0.06033670
  10       0.51045546
  11      -0.00000000
  12      -0.00000000
  13      -0.01104612
  14       0.06665185
  15       0.00000000
  16       0.00000000
  17      -0.00333424
  18       0.00383776
  19       0.00383776
  20      -0.00783837
  21      -0.00000000
  22      -0.00000000
  23      -0.00000000
  24       0.07553652
  25       0.12887579
  26       0.00000000
  27       0.00000000
  28      -0.04127126
  29      -0.40120624
  30      -0.00000000
  31       0.00000000
  32      -0.06033670
  33      -0.51045546
  34       0.00000000
  35      -0.00000000
  36      -0.01104612
  37      -0.06665185
  38      -0.00000000
  39      -0.00000000
  40      -0.00333424
  41      -0.00383776
  42      -0.00383776
  43       0.00783837
  44       0.00000000
  45      -0.00000000
  46       0.00000000
Ene=     7.83478E-03
Spin= Alpha
Occup=   0.0000000000
   1      -0.00124797
   2      -0.00066183
   3       0.00000000
   4       0.00000000
   5      -0.10925869
   6       0.02156225
   7       0.00000000
   8       0.00000000
   9      -0.20955226
  10      -0.07867450
  11       0.00000000
  12       0.00000000
  13      -0.17028272
  14       0.46680427
  15       0.00000000
  16       0.00000000
  17      -0.33303403
  18       0.01196438
  19       0.01196438
  20      -0.00645560
  21       0.00000000
  22       0.00000000
  23       0.00000000
  24      -0.00124797
  25      -0.00066183
  26       0.00000000
  27       0.00000000
  28       0.10925869
  29       0.02156225
  30       0.00000000
  31       0.00000000
  32       0.20955226
  33      -0.07867450
  34       0.00000000
  35       0.00000000
  36       0.17028272
  37       0.46680427
  38       0.00000000
  39       0.00000000
  40       0.33303403
  41       0.01196438
  42       0.01196438
  43      -0.00645560
  44      -0.00000000
  45       0.00000000
  46      -0.00000000
Ene=     1.13130E-02
Spin= Alpha
Occup=   0.0000000000
   1       0.00000000
   2       0.00000000
   3      -0.01373580
   4       0.07742690
   5       0.00000000
   6       0.00000000
   7      -0.02872814
   8       0.16193675
   9       0.00000000
  10      -0.00000000
  11      -0.02061013
  12       0.11617659
  13      -0.00000000
  14      -0.00000000
  15      -0.05917020
  16       0.33353461
  17       0.00000000
  18      -0.00000000
  19      -0.00000000
  20       0.00000000
  21       0.00000000
  22      -0.00253508
  23       0.01428989
  24       0.00000000
  25      -0.00000000
  26      -0.01373580
  27       0.07742690
  28      -0.00000000
  29      -0.00000000
  30      -0.02872814
  31       0.16193675
  32      -0.00000000
  33       0.00000000
  34      -0.02061013
  35       0.11617659
  36      -0.00000000
  37       0.00000000
  38      -0.05917020
  39       0.33353461
  40      -0.00000000
  41      -0.00000000
  42      -0.00000000
  43       0.00000000
  44       0.00000000
  45       0.00253508
  46      -0.01428989
Ene=     1.13130E-02
Spin= Alpha
Occup=   0.0000000000
   1       0.00000000
   2       0.00000000
   3      -0.07742690
   4      -0.01373580
   5      -0.00000000
   6       0.00000000
   7      -0.16193675
   8      -0.02872814
   9      -0.00000000
  10      -0.00000000
  11      -0.11617659
  12      -0.02061013
  13      -0.00000000
  14       0.00000000
  15      -0.33353461
  16      -0.05917020
  17       0.00000000
  18       0.00000000
  19       0.00000000
  20       0.00000000
  21       0.00000000
  22      -0.01428989
  23      -0.00253508
  24      -0.00000000
  25      -0.00000000
  26      -0.07742690
  27      -0.01373580
  28       0.00000000
  29      -0.00000000
  30      -0.16193675
  31      -0.02872814
  32       0.00000000
  33       0.00000000
  34      -0.11617659
  35      -0.02061013
  36       0.00000000
  37      -0.00000000
  38      -0.33353461
  39      -0.05917020
  40       0.00000000
  41       0.00000000
  42       0.00000000
  43      -0.00000000
  44       0.00000000
  45       0.01428989
  46       0.00253508
Ene=     4.88710E-02
Spin= Alpha
Occup=   0.0000000000
   1       0.01819523
   2       0.03111797
   3      -0.00000000
   4      -0.00000000
   5       0.01294573
   6      -0.12432945
   7       0.00000000
   8      -0.00000000
   9      -0.05514094
  10       0.23357612
  11      -0.00000000
  12       0.00000000
  13       0.49916080
  14      -7.77657427
  15       0.00000000
  16      -0.00000000
  17      -3.53475089
  18      -0.00876291
  19      -0.00876291
  20       0.00814461
  21       0.00000000
  22      -0.00000000
  23       0.00000000
  24      -0.01819523
  25      -0.03111797
  26      -0.00000000
  27       0.00000000
  28       0.01294573
  29       0.12432945
  30      -0.00000000
  31       0.00000000
  32      -0.05514094
  33      -0.23357612
  34       0.00000000
  35      -0.00000000
  36       0.49916080
  37       7.77657427
  38      -0.00000000
  39       0.00000000
  40      -3.53475089
  41       0.00876291
  42       0.00876291
  43      -0.00814461
  44       0.00000000
  45      -0.00000000
  46       0.00000000
Ene=     5.53703E-02
Spin= Alpha
Occup=   0.0000000000
   1      -0.00000000
   2      -0.00000000
   3       0.00017186
   4      -0.03388113
   5       0.00000000
   6       0.00000000
   7       0.00064907
   8      -0.12795884
   9       0.00000000
  10       0.00000000
  11      -0.00067600
  12       0.13326797
  13      -0.00000000
  14       0.00000000
  15       0.00826112
  16      -1.62860515
  17       0.00000000
  18      -0.00000000
  19      -0.00000000
  20      -0.00000000
  21       0.00000000
  22      -0.00004837
  23       0.00953578
  24       0.00000000
  25       0.00000000
  26      -0.00017186
  27       0.03388113
  28      -0.00000000
  29      -0.00000000
  30      -0.00064907
  31       0.12795884
  32       0.00000000
  33      -0.00000000
  34       0.00067600
  35      -0.13326797
  36      -0.00000000
  37      -0.00000000
  38      -0.00826112
  39       1.62860515
  40       0.00000000
  41       0.00000000
  42       0.00000000
  43       0.00000000
  44       0.00000000
  45      -0.00004837
  46       0.00953578
Ene=     5.53703E-02
Spin= Alpha
Occup=   0.0000000000
   1      -0.00000000
   2      -0.00000000
   3       0.03388113
   4       0.00017186
   5      -0.00000000
   6       0.00000000
   7       0.12795884
   8       0.00064907
   9       0.00000000
  10       0.00000000
  11      -0.13326797
  12      -0.00067600
  13      -0.00000000
  14      -0.00000000
  15       1.62860515
  16       0.00826112
  17       0.00000000
  18      -0.00000000
  19      -0.00000000
  20      -0.00000000
  21      -0.00000000
  22      -0.00953578
  23      -0.00004837
  24       0.00000000
  25       0.00000000
  26      -0.03388113
  27      -0.00017186
  28      -0.00000000
  29      -0.00000000
  30      -0.12795884
  31      -0.00064907
  32       0.00000000
  33      -0.00000000
  34       0.13326797
  35       0.00067600
  36      -0.00000000
  37       0.00000000
  38      -1.62860515
  39      -0.00826112
  40       0.00000000
  41       0.00000000
  42       0.00000000
  43       0.00000000
  44       0.00000000
  45      -0.00953578
  46      -0.00004837
Ene=     6.34649E-02
Spin= Alpha
Occup=   0.0000000000
   1       0.02072286
   2       0.04536964
   3      -0.00000000
   4       0.00000000
   5       0.06816567
   6       0.00990138
   7       0.00000000
   8       0.00000000
   9       0.09119187
  10      -1.18465684
  11      -0.00000000
  12      -0.00000000
  13       0.27457432
  14       1.00346954
  15       0.00000000
  16       0.00000000
  17       0.23400748
  18       0.03557398
  19       0.03557398
  20       0.03357200
  21       0.00000000
  22      -0.00000000
  23      -0.00000000
  24       0.02072286
  25       0.04536964
  26      -0.00000000
  27      -0.00000000
  28      -0.06816567
  29       0.00990138
  30      -0.00000000
  31      -0.00000000
  32      -0.09119187
  33      -1.18465684
  34      -0.00000000
  35       0.00000000
  36      -0.27457432
  37       1.00346954
  38      -0.00000000
  39      -0.00000000
  40      -0.23400748
  41       0.03557398
  42       0.03557398
  43       0.03357200
  44       0.00000000
  45      -0.00000000
  46       0.00000000
Ene=     7.66649E-02
Spin= Alpha
Occup=   0.0000000000
   1      -0.00181884
   2      -0.00225829
   3      -0.00000000
   4      -0.00000000
   5      -0.08674795
   6       0.04301606
   7      -0.00000000
   8      -0.00000000
   9      -0.03135515
  10      -0.07479937
  11      -0.00000000
  12      -0.00000000
  13      -0.56720540
  14      -0.24756962
  15       0.00000000
  16       0.00000000
  17       1.47927437
  18       0.01473581
  19       0.01473581
  20      -0.01661923
  21       0.00000000
  22      -0.00000000
  23      -0.00000000
  24      -0.00181884
  25      -0.00225829
  26      -0.00000000
  27      -0.00000000
  28       0.08674795
  29       0.04301606
  30      -0.00000000
  31      -0.00000000
  32       0.03135515
  33      -0.07479937
  34      -0.00000000
  35      -0.00000000
  36       0.56720540
  37      -0.24756962
  38       0.00000000
  39       0.00000000
  40      -1.47927437
  41       0.01473581
  42       0.01473581
  43      -0.01661923
  44       0.00000000
  45       0.00000000
  46       0.00000000
Ene=     7.82908E-02
Spin= Alpha
Occup=   0.0000000000
   1       0.00000000
   2       0.00000000
   3       0.10317029
   4      -0.01255914
   5      -0.00000000
   6       0.00000000
   7       0.04365066
   8      -0.00531369
   9      -0.00000000
  10      -0.00000000
  11       0.70169227
  12      -0.08541848
  13      -0.00000000
  14       0.00000000
  15      -0.72284947
  16       0.08799399
  17       0.00000000
  18       0.00000000
  19       0.00000000
  20       0.00000000
  21      -0.00000000
  22       0.01476734
  23      -0.00179766
  24      -0.00000000
  25      -0.00000000
  26       0.10317029
  27      -0.01255914
  28       0.00000000
  29       0.00000000
  30       0.04365066
  31      -0.00531369
  32      -0.00000000
  33       0.00000000
  34       0.70169227
  35      -0.08541848
  36       0.00000000
  37      -0.00000000
  38      -0.72284947
  39       0.08799399
  40       0.00000000
  41      -0.00000000
  42       0.00000000
  43      -0.00000000
  44       0.00000000
  45      -0.01476734
  46       0.00179766
Ene=     7.82908E-02
Spin= Alpha
Occup=   0.0000000000
   1      -0.00000000
   2      -0.00000000
   3      -0.01255914
   4      -0.10317029
   5       0.00000000
   6      -0.00000000
   7      -0.00531369
   8      -0.04365066
   9       0.00000000
  10       0.00000000
  11      -0.08541848
  12      -0.70169227
  13       0.00000000
  14      -0.00000000
  15       0.08799399
  16       0.72284947
  17      -0.00000000
  18      -0.00000000
  19      -0.00000000
  20       0.00000000
  21       0.00000000
  22      -0.00179766
  23      -0.01476734
  24       0.00000000
  25       0.00000000
  26      -0.01255914
  27      -0.10317029
  28      -0.00000000
  29      -0.00000000
  30      -0.00531369
  31      -0.04365066
  32      -0.00000000
  33      -0.00000000
  34      -0.08541848
  35      -0.70169227
  36      -0.00000000
  37       0.00000000
  38       0.08799399
  39       0.72284947
  40      -0.00000000
  41       0.00000000
  42       0.00000000
  43       0.00000000
  44       0.00000000
  45       0.00179766
  46       0.01476734
Ene=     1.05566E-01
Spin= Alpha
Occup=   0.0000000000
   1      -0.01624859
   2      -0.03801217
   3      -0.00000000
   4       0.00000000
   5      -0.02136012
   6      -0.07526756
   7       0.00000000
   8       0.00000000
   9       0.04582444
  10       1.74561709
  11      -0.00000000
  12       0.00000000
  13      -0.14995130
  14     -21.02591243
  15       0.00000000
  16      -0.00000000
  17      -6.85783928
  18      -0.04296921
  19      -0.04296921
  20      -0.02334839
  21       0.00000000
  22       0.00000000
  23       0.00000000
  24       0.01624859
  25       0.03801217
  26       0.00000000
  27      -0.00000000
  28      -0.02136012
  29       0.07526756
  30       0.00000000
  31      -0.00000000
  32       0.04582444
  33      -1.74561709
  34       0.00000000
  35      -0.00000000
  36      -0.14995130
  37      21.02591243
  38      -0.00000000
  39       0.00000000
  40      -6.85783928
  41       0.04296921
  42       0.04296921
  43       0.02334839
  44       0.00000000
  45       0.00000000
  46       0.00000000
Ene=     1.27923E-01
Spin= Alpha
Occup=   0.0000000000
   1       0.00000000
   2       0.00000000
   3      -0.13654602
   4       0.00478478
   5       0.00000000
   6       0.00000000
   7      -0.09167646
   8       0.00321249
   9      -0.00000000
  10      -0.00000000
  11      -1.17704071
  12       0.04124534
  13       0.00000000
  14       0.00000000
  15       1.39533833
  16      -0.04889482
  17       0.00000000
  18       0.00000000
  19       0.00000000
  20       0.00000000
  21       0.00000000
  22       0.00512112
  23      -0.00017945
  24      -0.00000000
  25      -0.00000000
  26       0.13654602
  27      -0.00478478
  28       0.00000000
  29      -0.00000000
  30       0.09167646
  31      -0.00321249
  32      -0.00000000
  33       0.00000000
  34       1.17704071
  35      -0.04124534
  36       0.00000000
  37      -0.00000000
  38      -1.39533833
  39       0.04889482
  40       0.00000000
  41      -0.00000000
  42      -0.00000000
  43      -0.00000000
  44      -0.00000000
  45       0.00512112
  46      -0.00017945
Ene=     1.27923E-01
Spin= Alpha
Occup=   0.0000000000
   1       0.00000000
   2       0.00000000
   3       0.00478478
   4       0.13654602
   5       0.00000000
   6      -0.00000000
   7       0.00321249
   8       0.09167646
   9      -0.00000000
  10      -0.00000000
  11       0.04124534
  12       1.17704071
  13       0.00000000
  14       0.00000000
  15      -0.04889482
  16      -1.39533833
  17       0.00000000
  18       0.00000000
  19       0.00000000
  20       0.00000000
  21       0.00000000
  22      -0.00017945
  23      -0.00512112
  24      -0.00000000
  25      -0.00000000
  26      -0.00478478
  27      -0.13654602
  28       0.00000000
  29       0.00000000
  30      -0.00321249
  31      -0.09167646
  32      -0.00000000
  33       0.00000000
  34      -0.04124534
  35      -1.17704071
  36       0.00000000
  37      -0.00000000
  38       0.04889482
  39       1.39533833
  40       0.00000000
  41      -0.00000000
  42      -0.00000000
  43      -0.00000000
  44       0.00000000
  45      -0.00017945
  46      -0.00512112
Ene=     2.03208E-01
Spin= Alpha
Occup=   0.0000000000
   1       0.03447906
   2       0.06510299
   3      -0.00000000
   4       0.00000000
   5      -0.09018027
   6      -0.07120076
   7      -0.00000000
   8       0.00000000
   9       0.05272749
  10      -3.18125727
  11       0.00000000
  12       0.00000000
  13      -2.85015397
  14       3.70966730
  15       0.00000000
  16      -0.00000000
  17       1.79638525
  18       0.00923084
  19       0.00923084
  20       0.02851640
  21      -0.00000000
  22      -0.00000000
  23      -0.00000000
  24      -0.03447906
  25      -0.06510299
  26       0.00000000
  27      -0.00000000
  28      -0.09018027
  29       0.07120076
  30      -0.00000000
  31      -0.00000000
  32       0.05272749
  33       3.18125727
  34       0.00000000
  35      -0.00000000
  36      -2.85015397
  37      -3.70966730
  38      -0.00000000
  39       0.00000000
  40       1.79638525
  41      -0.00923084
  42      -0.00923084
  43      -0.02851640
  44      -0.00000000
  45       0.00000000
  46      -0.00000000
Ene=     2.99452E-01
Spin= Alpha
Occup=   0.0000000000
   1       0.02229117
   2       0.01916308
   3      -0.00000000
   4       0.00000000
   5      -0.07089369
   6      -0.69849497
   7      -0.00000000
   8       0.00000000
   9      -0.70927195
  10       0.95806498
  11       0.00000000
  12      -0.00000000
  13       1.31848639
  14      -0.22045609
  15      -0.00000000
  16       0.00000000
  17      -0.90119332
  18      -0.07468513
  19      -0.07468513
  20      -0.13939443
  21      -0.00000000
  22      -0.00000000
  23       0.00000000
  24       0.02229117
  25       0.01916308
  26      -0.00000000
  27      -0.00000000
  28       0.07089369
  29      -0.69849497
  30      -0.00000000
  31      -0.00000000
  32       0.70927195
  33       0.95806498
  34       0.00000000
  35       0.00000000
  36      -1.31848639
  37      -0.22045609
  38      -0.00000000
  39      -0.00000000
  40       0.90119332
  41      -0.07468513
  42      -0.07468513
  43      -0.13939443
  44       0.00000000
  45       0.00000000
  46      -0.00000000
Ene=     3.27738E-01
Spin= Alpha
Occup=   0.0000000000
   1       0.06321459
   2       0.07678513
   3       0.00000000
   4       0.00000000
   5       0.06972164
   6      -1.12827226
   7       0.00000000
   8       0.00000000
   9       0.42950758
  10       2.01547567
  11      -0.00000000
  12      -0.00000000
  13      -0.63230849
  14      -0.76862561
  15       0.00000000
  16       0.00000000
  17       0.16101126
  18      -0.15379761
  19      -0.15379761
  20      -0.18033710
  21      -0.00000000
  22       0.00000000
  23       0.00000000
  24       0.06321459
  25       0.07678513
  26       0.00000000
  27       0.00000000
  28      -0.06972164
  29      -1.12827226
  30       0.00000000
  31       0.00000000
  32      -0.42950758
  33       2.01547567
  34      -0.00000000
  35      -0.00000000
  36       0.63230849
  37      -0.76862561
  38       0.00000000
  39       0.00000000
  40      -0.16101126
  41      -0.15379761
  42      -0.15379761
  43      -0.18033710
  44      -0.00000000
  45      -0.00000000
  46      -0.00000000
Ene=     3.32560E-01
Spin= Alpha
Occup=   0.0000000000
   1      -0.00000000
   2      -0.00000000
   3      -0.11687691
   4       0.00267398
   5       0.00000000
   6       0.00000000
   7      -0.93211793
   8       0.02132555
   9       0.00000000
  10      -0.00000000
  11       1.15968967
  12      -0.02653208
  13      -0.00000000
  14       0.00000000
  15      -0.45010023
  16       0.01029766
  17       0.00000000
  18       0.00000000
  19       0.00000000
  20       0.00000000
  21       0.00000000
  22      -0.05872887
  23       0.00134363
  24       0.00000000
  25       0.00000000
  26      -0.11687691
  27       0.00267398
  28      -0.00000000
  29      -0.00000000
  30      -0.93211793
  31       0.02132555
  32      -0.00000000
  33       0.00000000
  34       1.15968967
  35      -0.02653208
  36      -0.00000000
  37      -0.00000000
  38      -0.45010023
  39       0.01029766
  40      -0.00000000
  41      -0.00000000
  42      -0.00000000
  43      -0.00000000
  44      -0.00000000
  45       0.05872887
  46      -0.00134363
Ene=     3.32560E-01
Spin= Alpha
Occup=   0.0000000000
   1       0.00000000
   2       0.00000000
   3      -0.00267398
   4      -0.11687691
   5       0.00000000
   6      -0.00000000
   7      -0.02132555
   8      -0.93211793
   9       0.00000000
  10       0.00000000
  11       0.02653208
  12       1.15968967
  13      -0.00000000
  14      -0.00000000
  15      -0.01029766
  16      -0.45010023
  17      -0.00000000
  18      -0.00000000
  19      -0.00000000
  20      -0.00000000
  21      -0.00000000
  22      -0.00134363
  23      -0.05872887
  24       0.00000000
  25       0.00000000
  26      -0.00267398
  27      -0.11687691
  28      -0.00000000
  29      -0.00000000
  30      -0.02132555
  31      -0.93211793
  32      -0.00000000
  33       0.00000000
  34       0.02653208
  35       1.15968967
  36       0.00000000
  37       0.00000000
  38      -0.01029766
  39      -0.45010023
  40      -0.00000000
  41      -0.00000000
  42      -0.00000000
  43      -0.00000000
  44       0.00000000
  45       0.00134363
  46       0.05872887
Ene=     3.60185E-01
Spin= Alpha
Occup=   0.0000000000
   1       0.00000000
   2       0.00000000
   3       0.03348700
   4      -0.14197855
   5       0.00000000
   6      -0.00000000
   7       0.22128580
   8      -0.93821005
   9       0.00000000
  10       0.00000000
  11      -0.38504792
  12       1.63253053
  13       0.00000000
  14      -0.00000000
  15       0.22767033
  16      -0.96527926
  17      -0.00000000
  18      -0.00000000
  19      -0.00000000
  20      -0.00000000
  21       0.00000000
  22      -0.00322123
  23       0.01365743
  24      -0.00000000
  25      -0.00000000
  26      -0.03348700
  27       0.14197855
  28       0.00000000
  29       0.00000000
  30      -0.22128580
  31       0.93821005
  32       0.00000000
  33      -0.00000000
  34       0.38504792
  35      -1.63253053
  36       0.00000000
  37       0.00000000
  38      -0.22767033
  39       0.96527926
  40      -0.00000000
  41       0.00000000
  42       0.00000000
  43       0.00000000
  44       0.00000000
  45      -0.00322123
  46       0.01365743
Ene=     3.60185E-01
Spin= Alpha
Occup=   0.0000000000
   1      -0.00000000
   2      -0.00000000
   3      -0.14197855
   4      -0.03348700
   5      -0.00000000
   6       0.00000000
   7      -0.93821005
   8      -0.22128580
   9      -0.00000000
  10      -0.00000000
  11       1.63253053
  12       0.38504792
  13      -0.00000000
  14       0.00000000
  15      -0.96527926
  16      -0.22767033
  17       0.00000000
  18       0.00000000
  19       0.00000000
  20       0.00000000
  21       0.00000000
  22       0.01365743
  23       0.00322123
  24       0.00000000
  25       0.00000000
  26       0.14197855
  27       0.03348700
  28      -0.00000000
  29      -0.00000000
  30       0.93821005
  31       0.22128580
  32      -0.00000000
  33       0.00000000
  34      -1.63253053
  35      -0.38504792
  36      -0.00000000
  37      -0.00000000
  38       0.96527926
  39       0.22767033
  40       0.00000000
  41      -0.00000000
  42      -0.00000000
  43      -0.00000000
  44       0.00000000
  45       0.01365743
  46       0.00322123
Ene=     3.78311E-01
Spin= Alpha
Occup=   0.0000000000
   1      -0.04838679
   2      -0.05244399
   3       0.00000000
   4      -0.00000000
   5      -0.09376768
   6       1.21571365
   7       0.00000000
   8      -0.00000000
   9      -0.67479584
  10      -4.15961002
  11      -0.00000000
  12       0.00000000
  13      -0.43909272
  14       9.10637711
  15       0.00000000
  16      -0.00000000
  17       2.64668846
  18       0.15518160
  19       0.15518160
  20       0.16751509
  21      -0.00000000
  22       0.00000000
  23       0.00000000
  24       0.04838679
  25       0.05244399
  26      -0.00000000
  27       0.00000000
  28      -0.09376768
  29      -1.21571365
  30      -0.00000000
  31       0.00000000
  32      -0.67479584
  33       4.15961002
  34       0.00000000
  35      -0.00000000
  36      -0.43909272
  37      -9.10637711
  38      -0.00000000
  39       0.00000000
  40       2.64668846
  41      -0.15518160
  42      -0.15518160
  43      -0.16751509
  44      -0.00000000
  45      -0.00000000
  46      -0.00000000
Ene=     4.22909E-01
Spin= Alpha
Occup=   0.0000000000
   1      -0.05520153
   2      -0.07506519
   3       0.00000000
   4      -0.00000000
   5       0.18480985
   6       1.13654477
   7       0.00000000
   8      -0.00000000
   9       0.79147829
  10      -4.71427763
  11      -0.00000000
  12       0.00000000
  13      -2.66496324
  14       6.33973444
  15       0.00000000
  16      -0.00000000
  17       2.30909828
  18       0.17876576
  19       0.17876576
  20       0.02452746
  21      -0.00000000
  22       0.00000000
  23       0.00000000
  24       0.05520153
  25       0.07506519
  26       0.00000000
  27       0.00000000
  28       0.18480985
  29      -1.13654477
  30       0.00000000
  31       0.00000000
  32       0.79147829
  33       4.71427763
  34      -0.00000000
  35      -0.00000000
  36      -2.66496324
  37      -6.33973444
  38      -0.00000000
  39       0.00000000
  40       2.30909828
  41      -0.17876576
  42      -0.17876576
  43      -0.02452746
  44      -0.00000000
  45      -0.00000000
  46      -0.00000000
Ene=     6.07433E-01
Spin= Alpha
Occup=   0.0000000000
   1       0.00000000
   2       0.00000000
   3       0.00216157
   4      -0.06154287
   5       0.00000000
   6      -0.00000000
   7       0.00430416
   8      -0.12254543
   9      -0.00000000
  10       0.00000000
  11      -0.00062827
  12       0.01788770
  13       0.00000000
  14      -0.00000000
  15      -0.00050518