[Molden Format]
[Atoms] AU
E+       1       4     0.00000000     0.00000000     0.00000000
E+       2       4     0.00000000     0.00000000     4.63600000
[GTO]
  1 0
s  1 1.00
   1.0000000000E-04   1.0000000000E+00
s  1 1.00
   3.0000000000E-04   1.0000000000E+00
s  1 1.00
   9.0000000000E-04   1.0000000000E+00
s  1 1.00
   2.7000000000E-03   1.0000000000E+00
s  1 1.00
   8.1000000000E-03   1.0000000000E+00
s  1 1.00
   2.4300000000E-02   1.0000000000E+00
s  1 1.00
   7.2900000000E-02   1.0000000000E+00
s  1 1.00
   2.1870000000E-01   1.0000000000E+00
s  1 1.00
   6.5610000000E-01   1.0000000000E+00
s  1 1.00
   1.9683000000E+00   1.0000000000E+00
p  1 1.00
   1.0000000000E-04   1.0000000000E+00
p  1 1.00
   3.0000000000E-04   1.0000000000E+00
p  1 1.00
   9.0000000000E-04   1.0000000000E+00
p  1 1.00
   2.7000000000E-03   1.0000000000E+00
d  1 1.00
   1.0000000000E-04   1.0000000000E+00
d  1 1.00
   3.0000000000E-04   1.0000000000E+00
 
  2 0
s  1 1.00
   1.0000000000E-04   1.0000000000E+00
s  1 1.00
   3.0000000000E-04   1.0000000000E+00
s  1 1.00
   9.0000000000E-04   1.0000000000E+00
s  1 1.00
   2.7000000000E-03   1.0000000000E+00
s  1 1.00
   8.1000000000E-03   1.0000000000E+00
s  1 1.00
   2.4300000000E-02   1.0000000000E+00
s  1 1.00
   7.2900000000E-02   1.0000000000E+00
s  1 1.00
   2.1870000000E-01   1.0000000000E+00
s  1 1.00
   6.5610000000E-01   1.0000000000E+00
s  1 1.00
   1.9683000000E+00   1.0000000000E+00
p  1 1.00
   1.0000000000E-04   1.0000000000E+00
p  1 1.00
   3.0000000000E-04   1.0000000000E+00
p  1 1.00
   9.0000000000E-04   1.0000000000E+00
p  1 1.00
   2.7000000000E-03   1.0000000000E+00
d  1 1.00
   1.0000000000E-04   1.0000000000E+00
d  1 1.00
   3.0000000000E-04   1.0000000000E+00
 
 
[MO]
Ene=    -1.93957E-02
Spin= Alpha
Occup=   1.0000000000
   1       0.01679450
   2       0.01046807
   3      -0.01860331
   4       0.00207762
   5      -0.20792389
   6      -0.22090725
   7      -0.26143268
   8       0.18128065
   9       0.01632968
  10      -0.00065109
  11       0.00000000
  12      -0.00000000
  13       0.00085622
  14      -0.00000000
  15      -0.00000000
  16       0.00140634
  17      -0.00000000
  18       0.00000000
  19      -0.03072274
  20       0.00000000
  21       0.00000000
  22       0.02203951
  23      -0.00273686
  24      -0.00273686
  25      -0.00195542
  26       0.00000000
  27       0.00000000
  28      -0.00000000
  29      -0.00660035
  30      -0.00660035
  31      -0.00854872
  32      -0.00000000
  33       0.00000000
  34      -0.00000000
  35       0.01679441
  36       0.01046798
  37      -0.01859288
  38       0.00219387
  39      -0.20800119
  40      -0.22112846
  41      -0.26150985
  42       0.18130796
  43       0.01633634
  44      -0.00065142
  45      -0.00000000
  46       0.00000000
  47      -0.00085950
  48       0.00000000
  49       0.00000000
  50      -0.00140754
  51       0.00000000
  52      -0.00000000
  53       0.03072779
  54      -0.00000000
  55      -0.00000000
  56      -0.02206132
  57      -0.00271050
  58      -0.00271050
  59      -0.00192902
  60      -0.00000000
  61      -0.00000000
  62       0.00000000
  63      -0.00655545
  64      -0.00655545
  65      -0.00850381
  66       0.00000000
  67      -0.00000000
  68       0.00000000
Ene=     7.67400E-05
Spin= Alpha
Occup=   0.0000000000
   1       0.99934925
   2      -0.34785678
   3      -0.10135484
   4       0.02312646
   5       0.00084343
   6       0.00491436
   7       0.00293364
   8      -0.00218507
   9      -0.00025063
  10       0.00001462
  11       0.00000000
  12      -0.00000000
  13       0.06233015
  14       0.00000000
  15      -0.00000000
  16      -0.01440594
  17      -0.00000000
  18       0.00000000
  19       0.04400762
  20       0.00000000
  21      -0.00000000
  22      -0.00487146
  23      -0.39774921
  24      -0.39774921
  25      -0.40125113
  26      -0.00000000
  27       0.00000000
  28       0.00000000
  29      -0.19044235
  30      -0.19044235
  31      -0.18849676
  32      -0.00000000
  33       0.00000000
  34      -0.00000000
  35       0.99934926
  36      -0.34785673
  37      -0.10135699
  38       0.02309710
  39       0.00084945
  40       0.00491928
  41       0.00293517
  42      -0.00218574
  43      -0.00025075
  44       0.00001463
  45      -0.00000000
  46      -0.00000000
  47      -0.06232951
  48      -0.00000000
  49       0.00000000
  50       0.01440736
  51       0.00000000
  52      -0.00000000
  53      -0.04400674
  54       0.00000000
  55       0.00000000
  56       0.00487622
  57      -0.39772460
  58      -0.39772460
  59      -0.40122642
  60       0.00000000
  61      -0.00000000
  62      -0.00000000
  63      -0.19043949
  64      -0.19043949
  65      -0.18849374
  66       0.00000000
  67      -0.00000000
  68       0.00000000
Ene=     1.37365E-04
Spin= Alpha
Occup=   0.0000000000
   1       0.00762981
   2      -0.01164963
   3      -0.17537341
   4      -1.09624842
   5      -0.01325477
   6      -0.00020250
   7      -0.00105161
   8       0.00051193
   9      -0.00000276
  10       0.00000526
  11       0.00000000
  12      -0.00000000
  13      -0.16831067
  14      -0.00000000
  15      -0.00000000
  16       0.35234957
  17       0.00000000
  18      -0.00000000
  19       0.04792284
  20      -0.00000000
  21      -0.00000000
  22      -0.14444316
  23     -11.99357728
  24     -11.99357728
  25     -12.02787884
  26      -0.00000000
  27       0.00000000
  28      -0.00000000
  29      -2.67089872
  30      -2.67089872
  31      -2.67725983
  32       0.00000000
  33      -0.00000000
  34      -0.00000000
  35      -0.00763929
  36       0.01165203
  37       0.17537363
  38       1.09624803
  39       0.01325471
  40       0.00020228
  41       0.00105148
  42      -0.00051182
  43       0.00000279
  44      -0.00000526
  45      -0.00000000
  46       0.00000000
  47      -0.16831011
  48       0.00000000
  49       0.00000000
  50       0.35234948
  51      -0.00000000
  52       0.00000000
  53       0.04792222
  54       0.00000000
  55       0.00000000
  56      -0.14444258
  57      11.99358034
  58      11.99358034
  59      12.02788188
  60       0.00000000
  61       0.00000000
  62      -0.00000000
  63       2.67090014
  64       2.67090014
  65       2.67726134
  66      -0.00000000
  67      -0.00000000
  68      -0.00000000
Ene=     2.10463E-04
Spin= Alpha
Occup=   0.0000000000
   1       0.00000000
   2       0.00000000
   3       0.00000000
   4      -0.00000000
   5       0.00000000
   6      -0.00000000
   7      -0.00000000
   8       0.00000000
   9       0.00000000
  10      -0.00000000
  11      -0.00042539
  12      -0.65119338
  13       0.00000000
  14       0.00009065
  15       0.13877517
  16       0.00000000
  17      -0.00001139
  18      -0.01743867
  19       0.00000000
  20       0.00000205
  21       0.00313572
  22      -0.00000000
  23      -0.00000000
  24      -0.00000000
  25       0.00000000
  26      -0.00000000
  27       0.00264559
  28       4.04995310
  29       0.00000000
  30       0.00000000
  31       0.00000000
  32       0.00000000
  33      -0.00044329
  34      -0.67860703
  35      -0.00000000
  36      -0.00000000
  37      -0.00000000
  38       0.00000000
  39      -0.00000000
  40       0.00000000
  41      -0.00000000
  42       0.00000000
  43      -0.00000000
  44       0.00000000
  45      -0.00042539
  46      -0.65119338
  47      -0.00000000
  48       0.00009065
  49       0.13877517
  50      -0.00000000
  51      -0.00001139
  52      -0.01743828
  53      -0.00000000
  54       0.00000205
  55       0.00313536
  56      -0.00000000
  57       0.00000000
  58       0.00000000
  59      -0.00000000
  60       0.00000000
  61      -0.00264559
  62      -4.04995312
  63      -0.00000000
  64      -0.00000000
  65       0.00000000
  66      -0.00000000
  67       0.00044329
  68       0.67860698
Ene=     2.10463E-04
Spin= Alpha
Occup=   0.0000000000
   1       0.00000000
   2      -0.00000000
   3      -0.00000000
   4      -0.00000000
   5       0.00000000
   6      -0.00000000
   7       0.00000000
   8      -0.00000000
   9      -0.00000000
  10       0.00000000
  11       0.65119338
  12      -0.00042539
  13       0.00000000
  14      -0.13877517
  15       0.00009065
  16       0.00000000
  17       0.01743867
  18      -0.00001139
  19      -0.00000000
  20      -0.00313572
  21       0.00000205
  22      -0.00000000
  23       0.00000000
  24      -0.00000000
  25       0.00000000
  26      -0.00000000
  27      -4.04995310
  28       0.00264559
  29      -0.00000000
  30      -0.00000000
  31      -0.00000000
  32       0.00000000
  33       0.67860703
  34      -0.00044329
  35      -0.00000000
  36       0.00000000
  37       0.00000000
  38       0.00000000
  39      -0.00000000
  40       0.00000000
  41      -0.00000000
  42      -0.00000000
  43      -0.00000000
  44       0.00000000
  45       0.65119338
  46      -0.00042539
  47      -0.00000000
  48      -0.13877517
  49       0.00009065
  50      -0.00000000
  51       0.01743828
  52      -0.00001139
  53      -0.00000000
  54      -0.00313536
  55       0.00000205
  56      -0.00000000
  57      -0.00000000
  58       0.00000000
  59      -0.00000000
  60       0.00000000
  61       4.04995312
  62      -0.00264559
  63       0.00000000
  64       0.00000000
  65       0.00000000
  66      -0.00000000
  67      -0.67860698
  68       0.00044329
Ene=     3.26004E-04
Spin= Alpha
Occup=   0.0000000000
   1      -0.01603372
   2       0.07229203
   3      -0.06538834
   4      -0.00241626
   5       0.00478468
   6      -0.00113087
   7       0.00059134
   8      -0.00023225
   9       0.00001940
  10      -0.00000487
  11       0.00000000
  12       0.00000000
  13       0.02130941
  14      -0.00000000
  15      -0.00000000
  16      -0.00089598
  17       0.00000000
  18       0.00000000
  19       0.31230710
  20      -0.00000000
  21      -0.00000000
  22      -0.03119149
  23       0.28955192
  24       0.28955192
  25      -0.54971598
  26       0.00000000
  27      -0.00000000
  28      -0.00000000
  29      -0.07448192
  30      -0.07448192
  31       0.09949552
  32      -0.00000000
  33       0.00000000
  34       0.00000000
  35      -0.01603371
  36       0.07229202
  37      -0.06538851
  38      -0.00241791
  39       0.00478509
  40      -0.00113056
  41       0.00059144
  42      -0.00023230
  43       0.00001939
  44      -0.00000487
  45      -0.00000000
  46      -0.00000000
  47      -0.02130907
  48       0.00000000
  49       0.00000000
  50       0.00089582
  51      -0.00000000
  52      -0.00000000
  53      -0.31230705
  54       0.00000000
  55       0.00000000
  56       0.03119177
  57       0.28954644
  58       0.28954644
  59      -0.54972194
  60       0.00000000
  61      -0.00000000
  62      -0.00000000
  63      -0.07448332
  64      -0.07448332
  65       0.09949376
  66      -0.00000000
  67       0.00000000
  68       0.00000000
Ene=     3.26219E-04
Spin= Alpha
Occup=   0.0000000000
   1      -0.00000000
   2       0.00000000
   3      -0.00000000
   4      -0.00000000
   5       0.00000000
   6      -0.00000000
   7       0.00000000
   8      -0.00000000
   9       0.00000000
  10      -0.00000000
  11       0.00108455
  12      -0.01293152
  13       0.00000000
  14      -0.00038095
  15       0.00454222
  16       0.00000000
  17       0.03169252
  18      -0.37788222
  19       0.00000000
  20      -0.00346920
  21       0.04136465
  22      -0.00000000
  23       0.00000000
  24       0.00000000
  25      -0.00000000
  26       0.00000000
  27      -0.04683955
  28       0.55848603
  29      -0.00000000
  30      -0.00000000
  31       0.00000000
  32       0.00000000
  33       0.00980522
  34      -0.11691142
  35      -0.00000000
  36       0.00000000
  37      -0.00000000
  38       0.00000000
  39       0.00000000
  40      -0.00000000
  41       0.00000000
  42      -0.00000000
  43       0.00000000
  44      -0.00000000
  45      -0.00108454
  46       0.01293142
  47      -0.00000000
  48       0.00038095
  49      -0.00454216
  50       0.00000000
  51      -0.03169252
  52       0.37788221
  53      -0.00000000
  54       0.00346920
  55      -0.04136466
  56       0.00000000
  57       0.00000000
  58       0.00000000
  59      -0.00000000
  60      -0.00000000
  61      -0.04683945
  62       0.55848484
  63      -0.00000000
  64      -0.00000000
  65       0.00000000
  66      -0.00000000
  67       0.00980518
  68      -0.11691097
Ene=     3.26219E-04
Spin= Alpha
Occup=   0.0000000000
   1       0.00000000
   2      -0.00000000
   3       0.00000000
   4       0.00000000
   5      -0.00000000
   6       0.00000000
   7      -0.00000000
   8       0.00000000
   9      -0.00000000
  10       0.00000000
  11       0.01293152
  12       0.00108455
  13      -0.00000000
  14      -0.00454222
  15      -0.00038095
  16      -0.00000000
  17       0.37788222
  18       0.03169252
  19      -0.00000000
  20      -0.04136465
  21      -0.00346920
  22       0.00000000
  23      -0.00000000
  24      -0.00000000
  25       0.00000000
  26      -0.00000000
  27      -0.55848603
  28      -0.04683955
  29       0.00000000
  30       0.00000000
  31      -0.00000000
  32       0.00000000
  33       0.11691142
  34       0.00980522
  35       0.00000000
  36      -0.00000000
  37       0.00000000
  38      -0.00000000
  39      -0.00000000
  40       0.00000000
  41      -0.00000000
  42       0.00000000
  43      -0.00000000
  44       0.00000000
  45      -0.01293142
  46      -0.00108454
  47       0.00000000
  48       0.00454216
  49       0.00038095
  50       0.00000000
  51      -0.37788221
  52      -0.03169252
  53       0.00000000
  54       0.04136466
  55       0.00346920
  56      -0.00000000
  57      -0.00000000
  58      -0.00000000
  59       0.00000000
  60       0.00000000
  61      -0.55848484
  62      -0.04683945
  63       0.00000000
  64       0.00000000
  65      -0.00000000
  66      -0.00000000
  67       0.11691097
  68       0.00980518
Ene=     3.29228E-04
Spin= Alpha
Occup=   0.0000000000
   1      -3.36432241
   2       0.84895724
   3       0.29378377
   4      -0.04222065
   5       0.02207319
   6       0.00343535
   7       0.00852515
   8      -0.00525359
   9      -0.00035508
  10       0.00000053
  11      -0.00000000
  12       0.00000000
  13      -0.18667176
  14       0.00000000
  15       0.00000000
  16       0.03581524
  17       0.00000000
  18       0.00000000
  19      -0.08518973
  20      -0.00000000
  21      -0.00000000
  22       0.03268258
  23       0.75514561
  24       0.75514561
  25       0.77335090
  26      -0.00000000
  27      -0.00000000
  28      -0.00000000
  29       0.46466711
  30       0.46466711
  31       0.44724810
  32       0.00000000
  33      -0.00000000
  34       0.00000000
  35      -3.36432186
  36       0.84895699
  37       0.29377229
  38      -0.04233327
  39       0.02208605
  40       0.00344596
  41       0.00852843
  42      -0.00525504
  43      -0.00035535
  44       0.00000055
  45       0.00000000
  46      -0.00000000
  47       0.18669117
  48       0.00000000
  49      -0.00000000
  50      -0.03582341
  51      -0.00000000
  52      -0.00000000
  53       0.08519023
  54       0.00000000
  55       0.00000000
  56      -0.03266574
  57       0.75482046
  58       0.75482046
  59       0.77302684
  60      -0.00000000
  61      -0.00000000
  62      -0.00000000
  63       0.46457831
  64       0.46457831
  65       0.44716025
  66      -0.00000000
  67       0.00000000
  68       0.00000000
Ene=     3.31132E-04
Spin= Alpha
Occup=   0.0000000000
   1      -0.00000000
   2       0.00000000
   3       0.00000000
   4       0.00000000
   5       0.00000000
   6       0.00000000
   7       0.00000000
   8      -0.00000000
   9      -0.00000000
  10      -0.00000000
  11       0.00000000
  12      -0.00000000
  13       0.00000000
  14       0.00000000
  15       0.00000000
  16      -0.00000000
  17       0.00000000
  18       0.00000000
  19      -0.00000000
  20      -0.00000000
  21      -0.00000000
  22       0.00000000
  23      -0.09233700
  24       0.09233700
  25       0.00000000
  26      -0.53844026
  27      -0.00000000
  28      -0.00000000
  29       0.01498018
  30      -0.01498018
  31       0.00000000
  32       0.08735322
  33       0.00000000
  34      -0.00000000
  35      -0.00000000
  36       0.00000000
  37       0.00000000
  38      -0.00000000
  39       0.00000000
  40       0.00000000
  41       0.00000000
  42      -0.00000000
  43      -0.00000000
  44       0.00000000
  45      -0.00000000
  46      -0.00000000
  47       0.00000000
  48       0.00000000
  49       0.00000000
  50      -0.00000000
  51      -0.00000000
  52      -0.00000000
  53       0.00000000
  54       0.00000000
  55       0.00000000
  56       0.00000000
  57      -0.09233705
  58       0.09233705
  59      -0.00000000
  60      -0.53844061
  61       0.00000000
  62      -0.00000000
  63       0.01498014
  64      -0.01498014
  65      -0.00000000
  66       0.08735294
  67       0.00000000
  68       0.00000000
Ene=     3.31132E-04
Spin= Alpha
Occup=   0.0000000000
   1       0.00000000
   2      -0.00000000
   3      -0.00000000
   4      -0.00000000
   5      -0.00000000
   6      -0.00000000
   7      -0.00000000
   8       0.00000000
   9       0.00000000
  10       0.00000000
  11       0.00000000
  12       0.00000000
  13       0.00000000
  14      -0.00000000
  15      -0.00000000
  16       0.00000000
  17       0.00000000
  18       0.00000000
  19       0.00000000
  20      -0.00000000
  21      -0.00000000
  22      -0.00000000
  23       0.46630295
  24      -0.46630295
  25      -0.00000000
  26      -0.10662158
  27      -0.00000000
  28      -0.00000000
  29      -0.07565011
  30       0.07565011
  31      -0.00000000
  32       0.01729763
  33       0.00000000
  34       0.00000000
  35       0.00000000
  36      -0.00000000
  37      -0.00000000
  38       0.00000000
  39      -0.00000000
  40      -0.00000000
  41      -0.00000000
  42       0.00000000
  43       0.00000000
  44      -0.00000000
  45      -0.00000000
  46      -0.00000000
  47      -0.00000000
  48      -0.00000000
  49       0.00000000
  50       0.00000000
  51      -0.00000000
  52      -0.00000000
  53      -0.00000000
  54       0.00000000
  55       0.00000000
  56      -0.00000000
  57       0.46630324
  58      -0.46630324
  59       0.00000000
  60      -0.10662165
  61      -0.00000000
  62       0.00000000
  63      -0.07564987
  64       0.07564987
  65       0.00000000
  66       0.01729757
  67      -0.00000000
  68      -0.00000000
Ene=     4.29159E-04
Spin= Alpha
Occup=   0.0000000000
   1       0.03931812
   2      -0.02319920
   3      -0.39376534
   4      -2.97983156
   5      -0.00210092
   6       0.01042451
   7       0.00131725
   8      -0.00112786
   9      -0.00014529
  10       0.00000961
  11       0.00000000
  12      -0.00000000
  13      -1.46390209
  14      -0.00000000
  15      -0.00000000
  16       0.70784036
  17       0.00000000
  18       0.00000000
  19       0.09201388
  20      -0.00000000
  21      -0.00000000
  22      -0.39102992
  23     -21.80727595
  24     -21.80727592
  25     -17.46339057
  26      -0.00000000
  27      -0.00000000
  28      -0.00000000
  29      -5.29172056
  30      -5.29172057
  31      -5.59173521
  32       0.00000000
  33      -0.00000000
  34      -0.00000000
  35      -0.03940775
  36       0.02322481
  37       0.39377559
  38       2.97983107
  39       0.00210166
  40      -0.01042380
  41      -0.00131666
  42       0.00112743
  43       0.00014517
  44      -0.00000960
  45      -0.00000000
  46       0.00000000
  47      -1.46389720
  48       0.00000000
  49       0.00000000
  50       0.70783920
  51      -0.00000000
  52      -0.00000000
  53       0.09201947
  54       0.00000000
  55       0.00000000
  56      -0.39103301
  57      21.80729435
  58      21.80729431
  59      17.46340917
  60       0.00000000
  61       0.00000000
  62       0.00000000
  63       5.29173370
  64       5.29173370
  65       5.59174751
  66      -0.00000000
  67      -0.00000000
  68      -0.00000000
Ene=     4.31960E-04
Spin= Alpha
Occup=   0.0000000000
   1      -0.00303842
   2      -0.00167127
   3      -0.00099023
   4       0.53235576
   5      -0.00387102
   6       0.00233167
   7       0.00010875
   8      -0.00016242
   9      -0.00003292
  10       0.00000306
  11      -0.00000000
  12       0.00000000
  13       0.31064919
  14       0.00000000
  15       0.00000000
  16       0.04358733
  17       0.00000000
  18      -0.00000000
  19       0.01761364
  20      -0.00000000
  21       0.00000000
  22       0.06131148
  23      11.98696350
  24      11.98696433
  25     -13.44105593
  26       0.00000000
  27       0.00000000
  28      -0.00000000
  29      -2.13894734
  30      -2.13894740
  31      -0.09865800
  32      -0.00000000
  33      -0.00000000
  34       0.00000000
  35       0.00302318
  36       0.00167565
  37       0.00099197
  38      -0.53235584
  39       0.00387115
  40      -0.00233155
  41      -0.00010865
  42       0.00016235
  43       0.00003290
  44      -0.00000306
  45       0.00000000
  46      -0.00000000
  47       0.31065002
  48      -0.00000000
  49      -0.00000000
  50       0.04358713
  51       0.00000000
  52      -0.00000000
  53       0.01761456
  54      -0.00000000
  55       0.00000000
  56       0.06131097
  57     -11.98696037
  58     -11.98696120
  59      13.44105906
  60      -0.00000000
  61      -0.00000000
  62       0.00000000
  63       2.13894956
  64       2.13894963
  65       0.09866011
  66       0.00000000
  67       0.00000000
  68      -0.00000000
Ene=     4.32335E-04
Spin= Alpha
Occup=   0.0000000000
   1       0.00000000
   2       0.00000000
   3       0.00000000
   4      -0.00000001
   5       0.00000000
   6      -0.00000000
   7      -0.00000000
   8       0.00000000
   9       0.00000000
  10      -0.00000000
  11       0.00000000
  12      -0.00000000
  13      -0.00000001
  14       0.00000000
  15       0.00000000
  16      -0.00000000
  17       0.00000000
  18       0.00000000
  19      -0.00000000
  20      -0.00000000
  21      -0.00000000
  22      -0.00000000
  23     -19.98263545
  24      19.98263499
  25       0.00000029
  26      -0.00226591
  27       0.00000000
  28       0.00000000
  29       1.59512602
  30      -1.59512592
  31       0.00000001
  32       0.00018088
  33      -0.00000000
  34      -0.00000000
  35      -0.00000000
  36      -0.00000000
  37      -0.00000000
  38       0.00000001
  39      -0.00000000
  40       0.00000000
  41       0.00000000
  42      -0.00000000
  43      -0.00000000
  44       0.00000000
  45      -0.00000000
  46       0.00000000
  47      -0.00000001
  48      -0.00000000
  49      -0.00000000
  50      -0.00000000
  51       0.00000000
  52       0.00000000
  53      -0.00000000
  54      -0.00000000
  55      -0.00000000
  56      -0.00000000
  57      19.98263543
  58     -19.98263498
  59      -0.00000029
  60       0.00226591
  61      -0.00000000
  62      -0.00000000
  63      -1.59512601
  64       1.59512592
  65      -0.00000001
  66      -0.00018088
  67       0.00000000
  68       0.00000000
Ene=     4.32335E-04
Spin= Alpha
Occup=   0.0000000000
   1      -0.00000000
   2       0.00000000
   3       0.00000000
   4       0.00000000
   5      -0.00000000
   6       0.00000000
   7      -0.00000000
   8       0.00000000
   9      -0.00000000
  10       0.00000000
  11       0.00000000
  12       0.00000000
  13       0.00000000
  14       0.00000000
  15      -0.00000000
  16      -0.00000000
  17      -0.00000000
  18       0.00000000
  19       0.00000000
  20       0.00000000
  21      -0.00000000
  22       0.00000000
  23       0.00196234
  24      -0.00196234
  25      -0.00000000
  26     -23.07395965
  27      -0.00000000
  28       0.00000000
  29      -0.00015664
  30       0.00015664
  31       0.00000000
  32       1.84189282
  33       0.00000000
  34      -0.00000000
  35      -0.00000000
  36      -0.00000000
  37      -0.00000000
  38      -0.00000000
  39       0.00000000
  40      -0.00000000
  41       0.00000000
  42      -0.00000000
  43       0.00000000
  44      -0.00000000
  45      -0.00000000
  46      -0.00000000
  47       0.00000000
  48      -0.00000000
  49      -0.00000000
  50      -0.00000000
  51      -0.00000000
  52       0.00000000
  53       0.00000000
  54       0.00000000
  55      -0.00000000
  56       0.00000000
  57      -0.00196234
  58       0.00196234
  59       0.00000000
  60      23.07395963
  61       0.00000000
  62      -0.00000000
  63       0.00015664
  64      -0.00015664
  65      -0.00000000
  66      -1.84189281
  67      -0.00000000
  68       0.00000000
Ene=     4.45202E-04
Spin= Alpha
Occup=   0.0000000000
   1       0.00000000
   2       0.00000000
   3       0.00000000
   4       0.00000000
   5      -0.00000000
   6       0.00000000
   7      -0.00000000
   8      -0.00000000
   9      -0.00000000
  10      -0.00000000
  11      -0.00010417
  12      -0.16320593
  13      -0.00000000
  14      -0.00006816
  15      -0.10678028
  16       0.00000000
  17       0.00002914
  18       0.04565329
  19       0.00000000
  20      -0.00000472
  21      -0.00739736
  22       0.00000000
  23       0.00000000
  24      -0.00000000
  25      -0.00000000
  26       0.00000000
  27       0.01029712
  28      16.13249657
  29      -0.00000000
  30      -0.00000000
  31      -0.00000000
  32      -0.00000000
  33      -0.00066006
  34      -1.03411334
  35      -0.00000000
  36      -0.00000000
  37      -0.00000000
  38      -0.00000000
  39       0.00000000
  40      -0.00000000
  41       0.00000000
  42       0.00000000
  43       0.00000000
  44      -0.00000000
  45      -0.00010417
  46      -0.16320593
  47      -0.00000000
  48      -0.00006816
  49      -0.10678028
  50      -0.00000000
  51       0.00002914
  52       0.04565298
  53       0.00000000
  54      -0.00000472
  55      -0.00739708
  56       0.00000000
  57      -0.00000000
  58       0.00000000
  59       0.00000000
  60      -0.00000000
  61      -0.01029712
  62     -16.13249662
  63       0.00000000
  64       0.00000000
  65       0.00000000
  66       0.00000000
  67       0.00066006
  68       1.03411340
Ene=     4.45202E-04
Spin= Alpha
Occup=   0.0000000000
   1       0.00000000
   2      -0.00000000
   3      -0.00000000
   4      -0.00000000
   5       0.00000000
   6      -0.00000000
   7       0.00000000
   8       0.00000000
   9       0.00000000
  10      -0.00000000
  11       0.16320593
  12      -0.00010417
  13       0.00000000
  14       0.10678028
  15      -0.00006816
  16       0.00000000
  17      -0.04565329
  18       0.00002914
  19       0.00000000
  20       0.00739736
  21      -0.00000472
  22      -0.00000000
  23      -0.00000000
  24       0.00000000
  25      -0.00000000
  26       0.00000000
  27     -16.13249657
  28       0.01029712
  29       0.00000000
  30      -0.00000000
  31       0.00000000
  32      -0.00000000
  33       1.03411334
  34      -0.00066006
  35       0.00000000
  36      -0.00000000
  37       0.00000000
  38       0.00000000
  39      -0.00000000
  40       0.00000000
  41      -0.00000000
  42       0.00000000
  43      -0.00000000
  44       0.00000000
  45       0.16320593
  46      -0.00010417
  47       0.00000000
  48       0.10678028
  49      -0.00006816
  50      -0.00000000
  51      -0.04565298
  52       0.00002914
  53      -0.00000000
  54       0.00739708
  55      -0.00000472
  56      -0.00000000
  57       0.00000000
  58      -0.00000000
  59       0.00000000
  60      -0.00000000
  61      16.13249662
  62      -0.01029712
  63      -0.00000000
  64       0.00000000
  65      -0.00000000
  66       0.00000000
  67      -1.03411340
  68       0.00066006
Ene=     8.59471E-04
Spin= Alpha
Occup=   0.0000000000
   1      -5.18773688
   2       1.70816684
   3       0.52801933
   4      -0.11256416
   5       0.00200239
   6      -0.01944989
   7      -0.00985484
   8       0.00761806
   9       0.00093848
  10      -0.00005989
  11      -0.00000000
  12       0.00000000
  13      -0.27504775
  14      -0.00000000
  15      -0.00000000
  16       0.06477459
  17      -0.00000000
  18       0.00000000
  19      -0.22697964
  20       0.00000000
  21      -0.00000000
  22       0.02890904
  23       0.88353574
  24       0.88353574
  25       0.87652739
  26       0.00000000
  27      -0.00000000
  28       0.00000000
  29       1.02653229
  30       1.02653229
  31       1.01085345
  32       0.00000000
  33       0.00000000
  34       0.00000000
  35      -5.18773302
  36       1.70816298
  37       0.52799621
  38      -0.11263658
  39       0.00197300
  40      -0.01946959
  41      -0.00986116
  42       0.00762098
  43       0.00093894
  44      -0.00005991
  45       0.00000000
  46      -0.00000000
  47       0.27519447
  48      -0.00000000
  49      -0.00000000
  50      -0.06488772
  51       0.00000000
  52       0.00000000
  53       0.22696136
  54      -0.00000000
  55      -0.00000000
  56      -0.02890341
  57       0.88207000
  58       0.88207000
  59       0.87506496
  60      -0.00000000
  61       0.00000000
  62      -0.00000000
  63       1.02580006
  64       1.02580006
  65       1.01011543
  66      -0.00000000
  67      -0.00000000
  68      -0.00000000
Ene=     9.11671E-04
Spin= Alpha
Occup=   0.0000000000
   1      -0.00000000
   2       0.00000000
   3      -0.00000000
   4      -0.00000000
   5      -0.00000000
   6      -0.00000000
   7      -0.00000000
   8       0.00000000
   9       0.00000000
  10      -0.00000000
  11       0.00009574
  12      -0.43697646