 Molden2AIM, Version 3.1.0 (02/25/2015)           Time: Thu Oct 17 18:55:48 2024
GAUSSIAN             46 MOL ORBITALS     72 PRIMITIVES        2 NUCLEI
  Be   1    (CENTRE  1)   0.00000000  0.00000000  0.00000000  CHARGE =  4.0
  Be   2    (CENTRE  2)   0.00000000  0.00000000  4.63600000  CHARGE =  4.0
CENTRE ASSIGNMENTS    1  1  1  1  1  1  1  1  1  1  1  1  1  1  1  1  1  1  1  1
CENTRE ASSIGNMENTS    1  1  1  1  1  1  1  1  1  1  1  1  1  1  1  1  2  2  2  2
CENTRE ASSIGNMENTS    2  2  2  2  2  2  2  2  2  2  2  2  2  2  2  2  2  2  2  2
CENTRE ASSIGNMENTS    2  2  2  2  2  2  2  2  2  2  2  2
TYPE ASSIGNMENTS      1  1  1  1  1  1  1  1  1  2  2  2  3  3  3  4  4  4  1  2
TYPE ASSIGNMENTS      3  4  1  2  3  4  1  2  3  4  5  6  7  8  9 10  1  1  1  1
TYPE ASSIGNMENTS      1  1  1  1  1  2  2  2  3  3  3  4  4  4  1  2  3  4  1  2
TYPE ASSIGNMENTS      3  4  1  2  3  4  5  6  7  8  9 10
EXPONENTS  0.1682800D+04 0.2517150D+03 0.5741160D+02 0.1651710D+02 0.4853640D+01
EXPONENTS  0.6268630D+00 0.8309380D+01 0.1740750D+01 0.4858160D+00 0.8309380D+01
EXPONENTS  0.1740750D+01 0.4858160D+00 0.8309380D+01 0.1740750D+01 0.4858160D+00
EXPONENTS  0.8309380D+01 0.1740750D+01 0.4858160D+00 0.1636130D+00 0.1636130D+00
EXPONENTS  0.1636130D+00 0.1636130D+00 0.5672850D-01 0.5672850D-01 0.5672850D-01
EXPONENTS  0.5672850D-01 0.2070000D-01 0.2070000D-01 0.2070000D-01 0.2070000D-01
EXPONENTS  0.2550000D+00 0.2550000D+00 0.2550000D+00 0.2550000D+00 0.2550000D+00
EXPONENTS  0.2550000D+00 0.1682800D+04 0.2517150D+03 0.5741160D+02 0.1651710D+02
EXPONENTS  0.4853640D+01 0.6268630D+00 0.8309380D+01 0.1740750D+01 0.4858160D+00
EXPONENTS  0.8309380D+01 0.1740750D+01 0.4858160D+00 0.8309380D+01 0.1740750D+01
EXPONENTS  0.4858160D+00 0.8309380D+01 0.1740750D+01 0.4858160D+00 0.1636130D+00
EXPONENTS  0.1636130D+00 0.1636130D+00 0.1636130D+00 0.5672850D-01 0.5672850D-01
EXPONENTS  0.5672850D-01 0.5672850D-01 0.2070000D-01 0.2070000D-01 0.2070000D-01
EXPONENTS  0.2070000D-01 0.2550000D+00 0.2550000D+00 0.2550000D+00 0.2550000D+00
EXPONENTS  0.2550000D+00 0.2550000D+00
MO    1     MO 0.0        OCC NO =    2.0000000  ORB. ENERGY =   -4.731380
 -0.18043766D+00 -0.33405460D+00 -0.54099719D+00 -0.69377918D+00 -0.62937505D+00
 -0.30579059D-01 -0.11954258D+00 -0.31601332D+00  0.38885682D-03  0.00000000D+00
  0.00000000D+00  0.00000000D+00  0.00000000D+00  0.00000000D+00  0.00000000D+00
 -0.17636379D-03 -0.15008040D-03 -0.11812630D-03  0.50852715D-03 -0.00000000D+00
 -0.00000000D+00 -0.51631694D-05 -0.79257685D-04  0.00000000D+00 -0.00000000D+00
 -0.10737922D-05  0.95427581D-05 -0.00000000D+00  0.00000000D+00  0.86401309D-06
 -0.42939006D-04 -0.42939006D-04 -0.72902932D-04 -0.00000000D+00  0.00000000D+00
 -0.00000000D+00 -0.18043766D+00 -0.33405460D+00 -0.54099719D+00 -0.69377918D+00
 -0.62937505D+00 -0.30579059D-01 -0.11954258D+00 -0.31601332D+00  0.38885682D-03
  0.00000000D+00  0.00000000D+00  0.00000000D+00 -0.00000000D+00 -0.00000000D+00
 -0.00000000D+00  0.17636379D-03  0.15008040D-03  0.11812630D-03  0.50852715D-03
  0.00000000D+00  0.00000000D+00  0.51631694D-05 -0.79257685D-04 -0.00000000D+00
 -0.00000000D+00  0.10737922D-05  0.95427581D-05  0.00000000D+00  0.00000000D+00
 -0.86401309D-06 -0.42939006D-04 -0.42939006D-04 -0.72902932D-04 -0.00000000D+00
  0.00000000D+00  0.00000000D+00
MO    2     MO 0.0        OCC NO =    2.0000000  ORB. ENERGY =   -4.731350
  0.18046136D+00  0.33409847D+00  0.54106824D+00  0.69387028D+00  0.62945770D+00
  0.30583075D-01  0.11957243D+00  0.31609224D+00 -0.38895393D-03  0.00000000D+00
  0.00000000D+00  0.00000000D+00  0.00000000D+00  0.00000000D+00  0.00000000D+00
  0.17997521D-03  0.15315361D-03  0.12054519D-03 -0.58898158D-03 -0.00000000D+00
 -0.00000000D+00 -0.68895161D-04  0.16330127D-03  0.00000000D+00  0.00000000D+00
  0.22261950D-04 -0.11413893D-03  0.00000000D+00 -0.00000000D+00 -0.10294962D-04
  0.42273309D-04  0.42273309D-04  0.20785732D-04 -0.00000000D+00 -0.00000000D+00
  0.00000000D+00 -0.18046136D+00 -0.33409847D+00 -0.54106824D+00 -0.69387028D+00
 -0.62945770D+00 -0.30583075D-01 -0.11957243D+00 -0.31609224D+00  0.38895393D-03
  0.00000000D+00  0.00000000D+00  0.00000000D+00 -0.00000000D+00 -0.00000000D+00
 -0.00000000D+00  0.17997521D-03  0.15315361D-03  0.12054519D-03  0.58898158D-03
  0.00000000D+00  0.00000000D+00 -0.68895161D-04 -0.16330127D-03  0.00000000D+00
 -0.00000000D+00  0.22261950D-04  0.11413893D-03 -0.00000000D+00  0.00000000D+00
 -0.10294962D-04 -0.42273309D-04 -0.42273309D-04 -0.20785732D-04 -0.00000000D+00
  0.00000000D+00  0.00000000D+00
MO    3     MO 0.0        OCC NO =    2.0000000  ORB. ENERGY =   -0.395679
  0.33103048D-01  0.61285573D-01  0.99251208D-01  0.12728055D+00  0.11546499D+00
  0.56100264D-02  0.48786326D-01  0.12896768D+00 -0.15869572D-03 -0.00000000D+00
 -0.00000000D+00 -0.00000000D+00 -0.00000000D+00 -0.00000000D+00 -0.00000000D+00
 -0.29562883D-01 -0.25157144D-01 -0.19800856D-01 -0.73551205D-01 -0.00000000D+00
 -0.00000000D+00 -0.11004432D-01 -0.19423408D-01  0.00000000D+00  0.00000000D+00
 -0.21049169D-03  0.12277117D-03 -0.00000000D+00  0.00000000D+00  0.36941708D-04
  0.11350356D-02  0.11350356D-02 -0.26231365D-02 -0.00000000D+00  0.00000000D+00
  0.00000000D+00  0.33103048D-01  0.61285573D-01  0.99251208D-01  0.12728055D+00
  0.11546499D+00  0.56100264D-02  0.48786326D-01  0.12896768D+00 -0.15869572D-03
 -0.00000000D+00 -0.00000000D+00 -0.00000000D+00  0.00000000D+00  0.00000000D+00
  0.00000000D+00  0.29562883D-01  0.25157144D-01  0.19800856D-01 -0.73551205D-01
  0.00000000D+00  0.00000000D+00  0.11004432D-01 -0.19423408D-01 -0.00000000D+00
  0.00000000D+00  0.21049169D-03  0.12277117D-03  0.00000000D+00  0.00000000D+00
 -0.36941708D-04  0.11350356D-02  0.11350356D-02 -0.26231365D-02 -0.00000000D+00
  0.00000000D+00  0.00000000D+00
MO    4     MO 0.0        OCC NO =    2.0000000  ORB. ENERGY =   -0.242960
 -0.32330943D-01 -0.59856131D-01 -0.96936245D-01 -0.12431182D+00 -0.11277185D+00
 -0.54791766D-02 -0.48828325D-01 -0.12907870D+00  0.15883234D-03  0.00000000D+00
  0.00000000D+00  0.00000000D+00 -0.00000000D+00 -0.00000000D+00 -0.00000000D+00
 -0.29989517D-01 -0.25520197D-01 -0.20086611D-01  0.73559899D-01  0.00000000D+00
 -0.00000000D+00 -0.89493996D-02  0.42288173D-01 -0.00000000D+00 -0.00000000D+00
 -0.43591466D-03  0.25923883D-02  0.00000000D+00  0.00000000D+00 -0.37316412D-04
  0.57800632D-03  0.57800632D-03 -0.11805395D-02 -0.00000000D+00 -0.00000000D+00
 -0.00000000D+00  0.32330943D-01  0.59856131D-01  0.96936245D-01  0.12431182D+00
  0.11277185D+00  0.54791766D-02  0.48828325D-01  0.12907870D+00 -0.15883234D-03
  0.00000000D+00  0.00000000D+00  0.00000000D+00  0.00000000D+00  0.00000000D+00
  0.00000000D+00 -0.29989517D-01 -0.25520197D-01 -0.20086611D-01 -0.73559899D-01
 -0.00000000D+00  0.00000000D+00 -0.89493996D-02 -0.42288173D-01  0.00000000D+00
 -0.00000000D+00 -0.43591466D-03 -0.25923883D-02 -0.00000000D+00 -0.00000000D+00
 -0.37316412D-04 -0.57800632D-03 -0.57800632D-03  0.11805395D-02  0.00000000D+00
 -0.00000000D+00  0.00000000D+00
MO    5     MO 0.0        OCC NO =    0.0000000  ORB. ENERGY =    0.007835
 -0.53415284D-03 -0.98890782D-03 -0.16015237D-02 -0.20538069D-02 -0.18631502D-02
 -0.90523736D-04 -0.25075346D-03 -0.66287204D-03  0.81566914D-06  0.00000000D+00
  0.00000000D+00  0.00000000D+00  0.00000000D+00  0.00000000D+00  0.00000000D+00
 -0.79392182D-01 -0.67560412D-01 -0.53175909D-01  0.39533706D-02  0.00000000D+00
  0.00000000D+00 -0.31081695D-01 -0.65177104D-02  0.00000000D+00  0.00000000D+00
 -0.67198920D-02  0.18156104D-01  0.00000000D+00  0.00000000D+00 -0.37272767D-02
  0.18019593D-02  0.18019593D-02 -0.97228007D-03  0.00000000D+00  0.00000000D+00
  0.00000000D+00 -0.53415284D-03 -0.98890782D-03 -0.16015237D-02 -0.20538069D-02
 -0.18631502D-02 -0.90523736D-04 -0.25075346D-03 -0.66287204D-03  0.81566914D-06
  0.00000000D+00  0.00000000D+00  0.00000000D+00  0.00000000D+00  0.00000000D+00
  0.00000000D+00  0.79392182D-01  0.67560412D-01  0.53175909D-01  0.39533706D-02
  0.00000000D+00  0.00000000D+00  0.31081695D-01 -0.65177104D-02  0.00000000D+00
  0.00000000D+00  0.67198920D-02  0.18156104D-01  0.00000000D+00  0.00000000D+00
  0.37272767D-02  0.18019593D-02  0.18019593D-02 -0.97228007D-03 -0.00000000D+00
  0.00000000D+00 -0.00000000D+00
MO    6     MO 0.0        OCC NO =    0.0000000  ORB. ENERGY =    0.011313
  0.00000000D+00  0.00000000D+00  0.00000000D+00  0.00000000D+00  0.00000000D+00
  0.00000000D+00  0.00000000D+00  0.00000000D+00 -0.00000000D+00 -0.99810380D-02
 -0.84935698D-02 -0.66851768D-02  0.56261800D-01  0.47877137D-01  0.37683463D-01
  0.00000000D+00  0.00000000D+00  0.00000000D+00  0.00000000D+00 -0.42610817D-02
  0.24019157D-01  0.00000000D+00 -0.00000000D+00 -0.81334059D-03  0.45846938D-02
 -0.00000000D+00 -0.00000000D+00 -0.66222574D-03  0.37328791D-02  0.00000000D+00
 -0.00000000D+00 -0.00000000D+00  0.00000000D+00  0.00000000D+00 -0.66131301D-03
  0.37277286D-02  0.00000000D+00  0.00000000D+00  0.00000000D+00  0.00000000D+00
  0.00000000D+00  0.00000000D+00 -0.00000000D+00 -0.00000000D+00  0.00000000D+00
 -0.99810380D-02 -0.84935698D-02 -0.66851768D-02  0.56261800D-01  0.47877137D-01
  0.37683463D-01 -0.00000000D+00 -0.00000000D+00 -0.00000000D+00 -0.00000000D+00
 -0.42610817D-02  0.24019157D-01 -0.00000000D+00  0.00000000D+00 -0.81334059D-03
  0.45846938D-02 -0.00000000D+00  0.00000000D+00 -0.66222574D-03  0.37328791D-02
 -0.00000000D+00 -0.00000000D+00 -0.00000000D+00  0.00000000D+00  0.00000000D+00
  0.66131301D-03 -0.37277286D-02
MO    7     MO 0.0        OCC NO =    0.0000000  ORB. ENERGY =    0.011313
  0.00000000D+00  0.00000000D+00  0.00000000D+00  0.00000000D+00  0.00000000D+00
  0.00000000D+00  0.00000000D+00  0.00000000D+00 -0.00000000D+00 -0.56261800D-01
 -0.47877137D-01 -0.37683463D-01 -0.99810380D-02 -0.84935698D-02 -0.66851768D-02
 -0.00000000D+00 -0.00000000D+00 -0.00000000D+00  0.00000000D+00 -0.24019157D-01
 -0.42610817D-02 -0.00000000D+00 -0.00000000D+00 -0.45846938D-02 -0.81334059D-03
 -0.00000000D+00  0.00000000D+00 -0.37328791D-02 -0.66222574D-03  0.00000000D+00
  0.00000000D+00  0.00000000D+00  0.00000000D+00  0.00000000D+00 -0.37277286D-02
 -0.66131301D-03 -0.00000000D+00 -0.00000000D+00 -0.00000000D+00 -0.00000000D+00
 -0.00000000D+00 -0.00000000D+00 -0.00000000D+00 -0.00000000D+00  0.00000000D+00
 -0.56261800D-01 -0.47877137D-01 -0.37683463D-01 -0.99810380D-02 -0.84935698D-02
 -0.66851768D-02  0.00000000D+00  0.00000000D+00  0.00000000D+00 -0.00000000D+00
 -0.24019157D-01 -0.42610817D-02  0.00000000D+00  0.00000000D+00 -0.45846938D-02
 -0.81334059D-03  0.00000000D+00 -0.00000000D+00 -0.37328791D-02 -0.66222574D-03
  0.00000000D+00  0.00000000D+00  0.00000000D+00 -0.00000000D+00  0.00000000D+00
  0.37277286D-02  0.66131301D-03
MO    8     MO 0.0        OCC NO =    0.0000000  ORB. ENERGY =    0.048871
  0.77878746D-02  0.14418139D-01  0.23349994D-01  0.29944221D-01  0.27164473D-01
  0.13198236D-02  0.11789944D-01  0.31166965D-01 -0.38351190D-04 -0.00000000D+00
 -0.00000000D+00 -0.00000000D+00 -0.00000000D+00 -0.00000000D+00 -0.00000000D+00
  0.94069383D-02  0.80050278D-02  0.63006518D-02 -0.22795413D-01  0.00000000D+00
 -0.00000000D+00 -0.81787421D-02  0.19350380D-01 -0.00000000D+00  0.00000000D+00
  0.19698456D-01 -0.30246573D+00  0.00000000D+00 -0.00000000D+00 -0.39560505D-01
 -0.13197848D-02 -0.13197848D-02  0.12266624D-02  0.00000000D+00 -0.00000000D+00
  0.00000000D+00 -0.77878746D-02 -0.14418139D-01 -0.23349994D-01 -0.29944221D-01
 -0.27164473D-01 -0.13198236D-02 -0.11789944D-01 -0.31166965D-01  0.38351190D-04
 -0.00000000D+00 -0.00000000D+00 -0.00000000D+00  0.00000000D+00  0.00000000D+00
  0.00000000D+00  0.94069383D-02  0.80050278D-02  0.63006518D-02  0.22795413D-01
 -0.00000000D+00  0.00000000D+00 -0.81787421D-02 -0.19350380D-01  0.00000000D+00
 -0.00000000D+00  0.19698456D-01  0.30246573D+00 -0.00000000D+00  0.00000000D+00
 -0.39560505D-01  0.13197848D-02  0.13197848D-02 -0.12266624D-02  0.00000000D+00
 -0.00000000D+00  0.00000000D+00
MO    9     MO 0.0        OCC NO =    0.0000000  ORB. ENERGY =    0.055370
 -0.00000000D+00 -0.00000000D+00 -0.00000000D+00 -0.00000000D+00 -0.00000000D+00
 -0.00000000D+00 -0.00000000D+00 -0.00000000D+00  0.00000000D+00  0.12488105D-03
  0.10627010D-03  0.83643798D-04 -0.24619523D-01 -0.20950490D-01 -0.16489854D-01
  0.00000000D+00  0.00000000D+00  0.00000000D+00  0.00000000D+00  0.96272862D-04
 -0.18979407D-01  0.00000000D+00  0.00000000D+00 -0.26677087D-04  0.52591735D-02
 -0.00000000D+00  0.00000000D+00  0.92457458D-04 -0.18227152D-01  0.00000000D+00
 -0.00000000D+00 -0.00000000D+00 -0.00000000D+00  0.00000000D+00 -0.12618028D-04
  0.24875489D-02  0.00000000D+00  0.00000000D+00  0.00000000D+00  0.00000000D+00
  0.00000000D+00  0.00000000D+00  0.00000000D+00  0.00000000D+00 -0.00000000D+00
 -0.12488105D-03 -0.10627010D-03 -0.83643798D-04  0.24619523D-01  0.20950490D-01
  0.16489854D-01 -0.00000000D+00 -0.00000000D+00 -0.00000000D+00 -0.00000000D+00
 -0.96272862D-04  0.18979407D-01  0.00000000D+00 -0.00000000D+00  0.26677087D-04
 -0.52591735D-02 -0.00000000D+00 -0.00000000D+00 -0.92457458D-04  0.18227152D-01
  0.00000000D+00  0.00000000D+00  0.00000000D+00  0.00000000D+00  0.00000000D+00
 -0.12618028D-04  0.24875489D-02
MO   10     MO 0.0        OCC NO =    0.0000000  ORB. ENERGY =    0.055370
 -0.00000000D+00 -0.00000000D+00 -0.00000000D+00 -0.00000000D+00 -0.00000000D+00
 -0.00000000D+00 -0.00000000D+00 -0.00000000D+00  0.00000000D+00  0.24619523D-01
  0.20950490D-01  0.16489854D-01  0.12488105D-03  0.10627010D-03  0.83643798D-04
 -0.00000000D+00 -0.00000000D+00 -0.00000000D+00  0.00000000D+00  0.18979407D-01
  0.96272862D-04  0.00000000D+00  0.00000000D+00 -0.52591735D-02 -0.26677087D-04
 -0.00000000D+00 -0.00000000D+00  0.18227152D-01  0.92457458D-04  0.00000000D+00
 -0.00000000D+00 -0.00000000D+00 -0.00000000D+00 -0.00000000D+00 -0.24875489D-02
 -0.12618028D-04  0.00000000D+00  0.00000000D+00  0.00000000D+00  0.00000000D+00
  0.00000000D+00  0.00000000D+00  0.00000000D+00  0.00000000D+00 -0.00000000D+00
 -0.24619523D-01 -0.20950490D-01 -0.16489854D-01 -0.12488105D-03 -0.10627010D-03
 -0.83643798D-04 -0.00000000D+00 -0.00000000D+00 -0.00000000D+00 -0.00000000D+00
 -0.18979407D-01 -0.96272862D-04  0.00000000D+00 -0.00000000D+00  0.52591735D-02
  0.26677087D-04 -0.00000000D+00  0.00000000D+00 -0.18227152D-01 -0.92457458D-04
  0.00000000D+00  0.00000000D+00  0.00000000D+00  0.00000000D+00  0.00000000D+00
 -0.24875489D-02 -0.12618028D-04
MO   11     MO 0.0        OCC NO =    0.0000000  ORB. ENERGY =    0.063465
  0.88697441D-02  0.16421066D-01  0.26593709D-01  0.34103987D-01  0.30938085D-01
  0.15031697D-02  0.17189602D-01  0.45441074D-01 -0.55915591D-04 -0.00000000D+00
 -0.00000000D+00 -0.00000000D+00  0.00000000D+00  0.00000000D+00  0.00000000D+00
  0.49532182D-01  0.42150430D-01  0.33176047D-01  0.18153868D-02  0.00000000D+00
  0.00000000D+00  0.13525972D-01 -0.98141713D-01 -0.00000000D+00 -0.00000000D+00
  0.10835567D-01  0.39029415D-01  0.00000000D+00  0.00000000D+00  0.26189835D-02
  0.53578090D-02  0.53578090D-02  0.50562901D-02  0.00000000D+00 -0.00000000D+00
 -0.00000000D+00  0.88697441D-02  0.16421066D-01  0.26593709D-01  0.34103987D-01
  0.30938085D-01  0.15031697D-02  0.17189602D-01  0.45441074D-01 -0.55915591D-04
 -0.00000000D+00 -0.00000000D+00 -0.00000000D+00 -0.00000000D+00 -0.00000000D+00
 -0.00000000D+00 -0.49532182D-01 -0.42150430D-01 -0.33176047D-01  0.18153868D-02
 -0.00000000D+00 -0.00000000D+00 -0.13525972D-01 -0.98141713D-01 -0.00000000D+00
  0.00000000D+00 -0.10835567D-01  0.39029415D-01 -0.00000000D+00 -0.00000000D+00
 -0.26189835D-02  0.53578090D-02  0.53578090D-02  0.50562901D-02  0.00000000D+00
 -0.00000000D+00  0.00000000D+00
MO   12     MO 0.0        OCC NO =    0.0000000  ORB. ENERGY =    0.076665
 -0.77849512D-03 -0.14412727D-02 -0.23341229D-02 -0.29932981D-02 -0.27154276D-02
 -0.13193281D-03 -0.85561856D-03 -0.22618456D-02  0.27832185D-05 -0.00000000D+00
 -0.00000000D+00 -0.00000000D+00 -0.00000000D+00 -0.00000000D+00 -0.00000000D+00
 -0.63034886D-01 -0.53640834D-01 -0.42219993D-01  0.78868590D-02 -0.00000000D+00
 -0.00000000D+00 -0.46507311D-02 -0.61966791D-02 -0.00000000D+00 -0.00000000D+00
 -0.22383710D-01 -0.96290890D-02  0.00000000D+00  0.00000000D+00  0.16555860D-01
  0.22193653D-02  0.22193653D-02 -0.25030278D-02  0.00000000D+00 -0.00000000D+00
 -0.00000000D+00 -0.77849512D-03 -0.14412727D-02 -0.23341229D-02 -0.29932981D-02
 -0.27154276D-02 -0.13193281D-03 -0.85561856D-03 -0.22618456D-02  0.27832185D-05
 -0.00000000D+00 -0.00000000D+00 -0.00000000D+00 -0.00000000D+00 -0.00000000D+00
 -0.00000000D+00  0.63034886D-01  0.53640834D-01  0.42219993D-01  0.78868590D-02
 -0.00000000D+00 -0.00000000D+00  0.46507311D-02 -0.61966791D-02 -0.00000000D+00
 -0.00000000D+00  0.22383710D-01 -0.96290890D-02  0.00000000D+00  0.00000000D+00
 -0.16555860D-01  0.22193653D-02  0.22193653D-02 -0.25030278D-02  0.00000000D+00
  0.00000000D+00  0.00000000D+00
MO   13     MO 0.0        OCC NO =    0.0000000  ORB. ENERGY =    0.078291
  0.00000000D+00  0.00000000D+00  0.00000000D+00  0.00000000D+00  0.00000000D+00
  0.00000000D+00  0.00000000D+00  0.00000000D+00 -0.00000000D+00  0.74968082D-01
  0.63795633D-01  0.50212701D-01 -0.91260249D-02 -0.77659788D-02 -0.61124995D-02
 -0.00000000D+00 -0.00000000D+00 -0.00000000D+00  0.00000000D+00  0.64744542D-02
 -0.78814942D-03 -0.00000000D+00 -0.00000000D+00  0.27690985D-01 -0.33708820D-02
 -0.00000000D+00  0.00000000D+00 -0.80900441D-02  0.98481812D-03  0.00000000D+00
  0.00000000D+00  0.00000000D+00  0.00000000D+00 -0.00000000D+00  0.38522785D-02
 -0.46894613D-03 -0.00000000D+00 -0.00000000D+00 -0.00000000D+00 -0.00000000D+00
 -0.00000000D+00 -0.00000000D+00 -0.00000000D+00 -0.00000000D+00  0.00000000D+00
  0.74968082D-01  0.63795633D-01  0.50212701D-01 -0.91260249D-02 -0.77659788D-02
 -0.61124995D-02  0.00000000D+00  0.00000000D+00  0.00000000D+00  0.00000000D+00
  0.64744542D-02 -0.78814942D-03 -0.00000000D+00  0.00000000D+00  0.27690985D-01
 -0.33708820D-02  0.00000000D+00 -0.00000000D+00 -0.80900441D-02  0.98481812D-03
  0.00000000D+00 -0.00000000D+00  0.00000000D+00 -0.00000000D+00  0.00000000D+00
 -0.38522785D-02  0.46894613D-03
MO   14     MO 0.0        OCC NO =    0.0000000  ORB. ENERGY =    0.078291
 -0.00000000D+00 -0.00000000D+00 -0.00000000D+00 -0.00000000D+00 -0.00000000D+00
 -0.00000000D+00 -0.00000000D+00 -0.00000000D+00  0.00000000D+00 -0.91260249D-02
 -0.77659788D-02 -0.61124995D-02 -0.74968082D-01 -0.63795633D-01 -0.50212701D-01
  0.00000000D+00  0.00000000D+00  0.00000000D+00 -0.00000000D+00 -0.78814942D-03
 -0.64744542D-02  0.00000000D+00  0.00000000D+00 -0.33708820D-02 -0.27690985D-01
  0.00000000D+00 -0.00000000D+00  0.98481812D-03  0.80900441D-02 -0.00000000D+00
 -0.00000000D+00 -0.00000000D+00  0.00000000D+00  0.00000000D+00 -0.46894613D-03
 -0.38522785D-02  0.00000000D+00  0.00000000D+00  0.00000000D+00  0.00000000D+00
  0.00000000D+00  0.00000000D+00  0.00000000D+00  0.00000000D+00 -0.00000000D+00
 -0.91260249D-02 -0.77659788D-02 -0.61124995D-02 -0.74968082D-01 -0.63795633D-01
 -0.50212701D-01 -0.00000000D+00 -0.00000000D+00 -0.00000000D+00 -0.00000000D+00
 -0.78814942D-03 -0.64744542D-02 -0.00000000D+00 -0.00000000D+00 -0.33708820D-02
 -0.27690985D-01 -0.00000000D+00  0.00000000D+00  0.98481812D-03  0.80900441D-02
 -0.00000000D+00  0.00000000D+00  0.00000000D+00  0.00000000D+00  0.00000000D+00
  0.46894613D-03  0.38522785D-02
MO   15     MO 0.0        OCC NO =    0.0000000  ORB. ENERGY =    0.105566
 -0.69546788D-02 -0.12875596D-01 -0.20851865D-01 -0.26740600D-01 -0.24258247D-01
 -0.11786205D-02 -0.14402011D-01 -0.38072020D-01  0.46847913D-04 -0.00000000D+00
 -0.00000000D+00 -0.00000000D+00  0.00000000D+00  0.00000000D+00  0.00000000D+00
 -0.15521205D-01 -0.13208089D-01 -0.10395913D-01 -0.13800070D-01  0.00000000D+00
  0.00000000D+00  0.67968786D-02  0.14461390D+00 -0.00000000D+00  0.00000000D+00
 -0.59175502D-02 -0.81779171D+00  0.00000000D+00 -0.00000000D+00 -0.76752110D-01
 -0.64716071D-02 -0.64716071D-02 -0.35165088D-02  0.00000000D+00  0.00000000D+00
  0.00000000D+00  0.69546788D-02  0.12875596D-01  0.20851865D-01  0.26740600D-01
  0.24258247D-01  0.11786205D-02  0.14402011D-01  0.38072020D-01 -0.46847913D-04
  0.00000000D+00  0.00000000D+00  0.00000000D+00 -0.00000000D+00 -0.00000000D+00
 -0.00000000D+00 -0.15521205D-01 -0.13208089D-01 -0.10395913D-01  0.13800070D-01
  0.00000000D+00 -0.00000000D+00  0.67968786D-02 -0.14461390D+00  0.00000000D+00
 -0.00000000D+00 -0.59175502D-02  0.81779171D+00 -0.00000000D+00  0.00000000D+00
 -0.76752110D-01  0.64716071D-02  0.64716071D-02  0.35165088D-02  0.00000000D+00
  0.00000000D+00  0.00000000D+00
MO   16     MO 0.0        OCC NO =    0.0000000  ORB. ENERGY =    0.127923
  0.00000000D+00  0.00000000D+00  0.00000000D+00  0.00000000D+00  0.00000000D+00
  0.00000000D+00  0.00000000D+00  0.00000000D+00 -0.00000000D+00 -0.99220359D-01
 -0.84433608D-01 -0.66456579D-01  0.34768321D-02  0.29586819D-02  0.23287395D-02
  0.00000000D+00  0.00000000D+00  0.00000000D+00  0.00000000D+00 -0.13597848D-01
  0.47649037D-03 -0.00000000D+00 -0.00000000D+00 -0.46449730D-01  0.16276709D-02
  0.00000000D+00  0.00000000D+00  0.15616458D-01 -0.54722493D-03  0.00000000D+00
  0.00000000D+00  0.00000000D+00  0.00000000D+00  0.00000000D+00  0.13359197D-02
 -0.46812180D-04 -0.00000000D+00 -0.00000000D+00 -0.00000000D+00 -0.00000000D+00
 -0.00000000D+00 -0.00000000D+00 -0.00000000D+00 -0.00000000D+00  0.00000000D+00
  0.99220359D-01  0.84433608D-01  0.66456579D-01 -0.34768321D-02 -0.29586819D-02
 -0.23287395D-02  0.00000000D+00  0.00000000D+00  0.00000000D+00 -0.00000000D+00
  0.13597848D-01 -0.47649037D-03 -0.00000000D+00  0.00000000D+00  0.46449730D-01
 -0.16276709D-02  0.00000000D+00 -0.00000000D+00 -0.15616458D-01  0.54722493D-03
  0.00000000D+00 -0.00000000D+00 -0.00000000D+00 -0.00000000D+00 -0.00000000D+00
  0.13359197D-02 -0.46812180D-04
MO   17     MO 0.0        OCC NO =    0.0000000  ORB. ENERGY =    0.127923
  0.00000000D+00  0.00000000D+00  0.00000000D+00  0.00000000D+00  0.00000000D+00
  0.00000000D+00  0.00000000D+00  0.00000000D+00 -0.00000000D+00  0.34768321D-02
  0.29586819D-02  0.23287395D-02  0.99220359D-01  0.84433608D-01  0.66456579D-01
  0.00000000D+00  0.00000000D+00  0.00000000D+00 -0.00000000D+00  0.47649037D-03
  0.13597848D-01 -0.00000000D+00 -0.00000000D+00  0.16276709D-02  0.46449730D-01
  0.00000000D+00  0.00000000D+00 -0.54722493D-03 -0.15616458D-01  0.00000000D+00
  0.00000000D+00  0.00000000D+00  0.00000000D+00  0.00000000D+00 -0.46812180D-04
 -0.13359197D-02 -0.00000000D+00 -0.00000000D+00 -0.00000000D+00 -0.00000000D+00
 -0.00000000D+00 -0.00000000D+00 -0.00000000D+00 -0.00000000D+00  0.00000000D+00
 -0.34768321D-02 -0.29586819D-02 -0.23287395D-02 -0.99220359D-01 -0.84433608D-01
 -0.66456579D-01  0.00000000D+00  0.00000000D+00  0.00000000D+00  0.00000000D+00
 -0.47649037D-03 -0.13597848D-01 -0.00000000D+00  0.00000000D+00 -0.16276709D-02
 -0.46449730D-01  0.00000000D+00 -0.00000000D+00  0.54722493D-03  0.15616458D-01
  0.00000000D+00 -0.00000000D+00 -0.00000000D+00 -0.00000000D+00  0.00000000D+00
 -0.46812180D-04 -0.13359197D-02
MO   18     MO 0.0        OCC NO =    0.0000000  ORB. ENERGY =    0.203208
  0.14757637D-01  0.27321660D-01  0.44247082D-01  0.56742816D-01  0.51475331D-01
  0.25010003D-02  0.24666153D-01  0.65205494D-01 -0.80235861D-04 -0.00000000D+00
 -0.00000000D+00 -0.00000000D+00  0.00000000D+00  0.00000000D+00  0.00000000D+00
 -0.65528961D-01 -0.55763218D-01 -0.43890494D-01 -0.13054435D-01 -0.00000000D+00
  0.00000000D+00  0.78207688D-02 -0.26354808D+00  0.00000000D+00  0.00000000D+00
 -0.11247604D+00  0.14428554D+00  0.00000000D+00 -0.00000000D+00  0.20104927D-01
  0.13902599D-02  0.13902599D-02  0.42948645D-02 -0.00000000D+00 -0.00000000D+00
 -0.00000000D+00 -0.14757637D-01 -0.27321660D-01 -0.44247082D-01 -0.56742816D-01
 -0.51475331D-01 -0.25010003D-02 -0.24666153D-01 -0.65205494D-01  0.80235861D-04
  0.00000000D+00  0.00000000D+00  0.00000000D+00 -0.00000000D+00 -0.00000000D+00
 -0.00000000D+00 -0.65528961D-01 -0.55763218D-01 -0.43890494D-01  0.13054435D-01
 -0.00000000D+00 -0.00000000D+00  0.78207688D-02  0.26354808D+00  0.00000000D+00
 -0.00000000D+00 -0.11247604D+00 -0.14428554D+00 -0.00000000D+00  0.00000000D+00
  0.20104927D-01 -0.13902599D-02 -0.13902599D-02 -0.42948645D-02 -0.00000000D+00
  0.00000000D+00 -0.00000000D+00
MO   19     MO 0.0        OCC NO =    0.0000000  ORB. ENERGY =    0.299452
  0.95410081D-02  0.17663816D-01  0.28606326D-01  0.36684984D-01  0.33279485D-01
  0.16169299D-02  0.72604877D-02  0.19193252D-01 -0.23617444D-04 -0.00000000D+00
 -0.00000000D+00 -0.00000000D+00  0.00000000D+00  0.00000000D+00  0.00000000D+00
 -0.51514481D-01 -0.43837309D-01 -0.34503767D-01 -0.12806685D+00 -0.00000000D+00
  0.00000000D+00 -0.10520228D+00  0.79369937D-01  0.00000000D+00 -0.00000000D+00
  0.52031622D-01 -0.85745226D-02 -0.00000000D+00  0.00000000D+00 -0.10086047D-01
 -0.11248352D-01 -0.11248352D-01 -0.20994242D-01 -0.00000000D+00 -0.00000000D+00
  0.00000000D+00  0.95410081D-02  0.17663816D-01  0.28606326D-01  0.36684984D-01
  0.33279485D-01  0.16169299D-02  0.72604877D-02  0.19193252D-01 -0.23617444D-04
 -0.00000000D+00 -0.00000000D+00 -0.00000000D+00 -0.00000000D+00 -0.00000000D+00
 -0.00000000D+00  0.51514481D-01  0.43837309D-01  0.34503767D-01 -0.12806685D+00
 -0.00000000D+00 -0.00000000D+00  0.10520228D+00  0.79369937D-01  0.00000000D+00
  0.00000000D+00 -0.52031622D-01 -0.85745226D-02 -0.00000000D+00 -0.00000000D+00
  0.10086047D-01 -0.11248352D-01 -0.11248352D-01 -0.20994242D-01  0.00000000D+00
  0.00000000D+00 -0.00000000D+00
MO   20     MO 0.0        OCC NO =    0.0000000  ORB. ENERGY =    0.327738
  0.27056943D-01  0.50092072D-01  0.81123475D-01  0.10403340D+00  0.94375889D-01
  0.45853834D-02  0.29092270D-01  0.76906027D-01 -0.94633458D-04  0.00000000D+00
  0.00000000D+00  0.00000000D+00  0.00000000D+00  0.00000000D+00  0.00000000D+00
  0.50662818D-01  0.43112568D-01  0.33933334D-01 -0.20686516D+00  0.00000000D+00
  0.00000000D+00  0.63706417D-01  0.16697007D+00 -0.00000000D+00 -0.00000000D+00
 -0.24952883D-01 -0.29895285D-01  0.00000000D+00  0.00000000D+00  0.18020186D-02
 -0.23163509D-01 -0.23163509D-01 -0.27160631D-01 -0.00000000D+00  0.00000000D+00
  0.00000000D+00  0.27056943D-01  0.50092072D-01  0.81123475D-01  0.10403340D+00
  0.94375889D-01  0.45853834D-02  0.29092270D-01  0.76906027D-01 -0.94633458D-04
  0.00000000D+00  0.00000000D+00  0.00000000D+00  0.00000000D+00  0.00000000D+00
  0.00000000D+00 -0.50662818D-01 -0.43112568D-01 -0.33933334D-01 -0.20686516D+00
  0.00000000D+00  0.00000000D+00 -0.63706417D-01  0.16697007D+00 -0.00000000D+00
 -0.00000000D+00  0.24952883D-01 -0.29895285D-01  0.00000000D+00  0.00000000D+00
 -0.18020186D-02 -0.23163509D-01 -0.23163509D-01 -0.27160631D-01 -0.00000000D+00
 -0.00000000D+00 -0.00000000D+00
MO   21     MO 0.0        OCC NO =    0.0000000  ORB. ENERGY =    0.332560
 -0.00000000D+00 -0.00000000D+00 -0.00000000D+00 -0.00000000D+00 -0.00000000D+00
 -0.00000000D+00 -0.00000000D+00 -0.00000000D+00  0.00000000D+00 -0.84927917D-01
 -0.72271159D-01 -0.56883676D-01  0.19430318D-02  0.16534629D-02  0.13014188D-02
  0.00000000D+00  0.00000000D+00  0.00000000D+00  0.00000000D+00 -0.13825575D+00
  0.31630976D-02  0.00000000D+00 -0.00000000D+00  0.45765004D-01 -0.10470394D-02
 -0.00000000D+00  0.00000000D+00 -0.50374675D-02  0.11525017D-03  0.00000000D+00
  0.00000000D+00  0.00000000D+00  0.00000000D+00  0.00000000D+00 -0.15320292D-01
  0.35050571D-03  0.00000000D+00  0.00000000D+00  0.00000000D+00  0.00000000D+00
  0.00000000D+00  0.00000000D+00  0.00000000D+00  0.00000000D+00 -0.00000000D+00
 -0.84927917D-01 -0.72271159D-01 -0.56883676D-01  0.19430318D-02  0.16534629D-02
  0.13014188D-02 -0.00000000D+00 -0.00000000D+00 -0.00000000D+00 -0.00000000D+00
 -0.13825575D+00  0.31630976D-02 -0.00000000D+00  0.00000000D+00  0.45765004D-01
 -0.10470394D-02 -0.00000000D+00 -0.00000000D+00 -0.50374675D-02  0.11525017D-03
 -0.00000000D+00 -0.00000000D+00 -0.00000000D+00 -0.00000000D+00 -0.00000000D+00
  0.15320292D-01 -0.35050571D-03
MO   22     MO 0.0        OCC NO =    0.0000000  ORB. ENERGY =    0.332560
  0.00000000D+00  0.00000000D+00  0.00000000D+00  0.00000000D+00  0.00000000D+00
  0.00000000D+00  0.00000000D+00  0.00000000D+00 -0.00000000D+00 -0.19430318D-02
 -0.16534629D-02 -0.13014188D-02 -0.84927917D-01 -0.72271159D-01 -0.56883676D-01
  0.00000000D+00  0.00000000D+00  0.00000000D+00 -0.00000000D+00 -0.31630976D-02
 -0.13825575D+00  0.00000000D+00  0.00000000D+00  0.10470394D-02  0.45765004D-01
 -0.00000000D+00 -0.00000000D+00 -0.11525017D-03 -0.50374675D-02 -0.00000000D+00
 -0.00000000D+00 -0.00000000D+00 -0.00000000D+00 -0.00000000D+00 -0.35050571D-03
 -0.15320292D-01  0.00000000D+00  0.00000000D+00  0.00000000D+00  0.00000000D+00
  0.00000000D+00  0.00000000D+00  0.00000000D+00  0.00000000D+00 -0.00000000D+00
 -0.19430318D-02 -0.16534629D-02 -0.13014188D-02 -0.84927917D-01 -0.72271159D-01
 -0.56883676D-01 -0.00000000D+00 -0.00000000D+00 -0.00000000D+00 -0.00000000D+00
 -0.31630976D-02 -0.13825575D+00 -0.00000000D+00  0.00000000D+00  0.10470394D-02
  0.45765004D-01  0.00000000D+00  0.00000000D+00 -0.11525017D-03 -0.50374675D-02
 -0.00000000D+00 -0.00000000D+00 -0.00000000D+00 -0.00000000D+00  0.00000000D+00
  0.35050571D-03  0.15320292D-01
MO   23     MO 0.0        OCC NO =    0.0000000  ORB. ENERGY =    0.360185
  0.00000000D+00  0.00000000D+00  0.00000000D+00  0.00000000D+00  0.00000000D+00
  0.00000000D+00  0.00000000D+00  0.00000000D+00 -0.00000000D+00  0.24333131D-01
  0.20706779D-01  0.16298032D-01 -0.10316788D+00 -0.87792828D-01 -0.69100577D-01
  0.00000000D+00  0.00000000D+00  0.00000000D+00 -0.00000000D+00  0.32822064D-01
 -0.13915936D+00  0.00000000D+00  0.00000000D+00 -0.15195203D-01  0.64424792D-01
  0.00000000D+00 -0.00000000D+00  0.25480589D-02 -0.10803289D-01 -0.00000000D+00