[Molden Format]
[Title]
 Molden2AIM, Version 3.1.0 (02/25/2015)           Time: Thu Oct 17 18:55:48 2024

[Atoms] AU
E+       1       4     0.00000000     0.00000000     0.00000000
E+       2       4     0.00000000     0.00000000     4.63600000
[GTO]
    1 0
 S   1 1.0
    0.1000000000D-03      0.1000000000D+01
 S   1 1.0
    0.3000000000D-03      0.1000000000D+01
 S   1 1.0
    0.9000000000D-03      0.1000000000D+01
 S   1 1.0
    0.2700000000D-02      0.1000000000D+01
 S   1 1.0
    0.8100000000D-02      0.1000000000D+01
 S   1 1.0
    0.2430000000D-01      0.1000000000D+01
 S   1 1.0
    0.7290000000D-01      0.1000000000D+01
 S   1 1.0
    0.2187000000D+00      0.1000000000D+01
 S   1 1.0
    0.6561000000D+00      0.1000000000D+01
 S   1 1.0
    0.1968300000D+01      0.1000000000D+01
 P   1 1.0
    0.1000000000D-03      0.1000000000D+01
 P   1 1.0
    0.3000000000D-03      0.1000000000D+01
 P   1 1.0
    0.9000000000D-03      0.1000000000D+01
 P   1 1.0
    0.2700000000D-02      0.1000000000D+01
 D   1 1.0
    0.1000000000D-03      0.1000000000D+01
 D   1 1.0
    0.3000000000D-03      0.1000000000D+01

    2 0
 S   1 1.0
    0.1000000000D-03      0.1000000000D+01
 S   1 1.0
    0.3000000000D-03      0.1000000000D+01
 S   1 1.0
    0.9000000000D-03      0.1000000000D+01
 S   1 1.0
    0.2700000000D-02      0.1000000000D+01
 S   1 1.0
    0.8100000000D-02      0.1000000000D+01
 S   1 1.0
    0.2430000000D-01      0.1000000000D+01
 S   1 1.0
    0.7290000000D-01      0.1000000000D+01
 S   1 1.0
    0.2187000000D+00      0.1000000000D+01
 S   1 1.0
    0.6561000000D+00      0.1000000000D+01
 S   1 1.0
    0.1968300000D+01      0.1000000000D+01
 P   1 1.0
    0.1000000000D-03      0.1000000000D+01
 P   1 1.0
    0.3000000000D-03      0.1000000000D+01
 P   1 1.0
    0.9000000000D-03      0.1000000000D+01
 P   1 1.0
    0.2700000000D-02      0.1000000000D+01
 D   1 1.0
    0.1000000000D-03      0.1000000000D+01
 D   1 1.0
    0.3000000000D-03      0.1000000000D+01


[MO]
 Ene=         -0.01939570
 Spin= Alpha
 Occup=        1.00000000
    1        0.0167945000
    2        0.0104680700
    3       -0.0186033100
    4        0.0020776200
    5       -0.2079238900
    6       -0.2209072500
    7       -0.2614326800
    8        0.1812806500
    9        0.0163296800
   10       -0.0006510900
   11        0.0000000000
   12       -0.0000000000
   13        0.0008562200
   14       -0.0000000000
   15       -0.0000000000
   16        0.0014063400
   17       -0.0000000000
   18        0.0000000000
   19       -0.0307227400
   20        0.0000000000
   21        0.0000000000
   22        0.0220395100
   23       -0.0027368600
   24       -0.0027368600
   25       -0.0019554200
   26        0.0000000000
   27        0.0000000000
   28       -0.0000000000
   29       -0.0066003500
   30       -0.0066003500
   31       -0.0085487200
   32       -0.0000000000
   33        0.0000000000
   34       -0.0000000000
   35        0.0167944100
   36        0.0104679800
   37       -0.0185928800
   38        0.0021938700
   39       -0.2080011900
   40       -0.2211284600
   41       -0.2615098500
   42        0.1813079600
   43        0.0163363400
   44       -0.0006514200
   45       -0.0000000000
   46        0.0000000000
   47       -0.0008595000
   48        0.0000000000
   49        0.0000000000
   50       -0.0014075400
   51        0.0000000000
   52       -0.0000000000
   53        0.0307277900
   54       -0.0000000000
   55       -0.0000000000
   56       -0.0220613200
   57       -0.0027105000
   58       -0.0027105000
   59       -0.0019290200
   60       -0.0000000000
   61       -0.0000000000
   62        0.0000000000
   63       -0.0065554500
   64       -0.0065554500
   65       -0.0085038100
   66        0.0000000000
   67       -0.0000000000
   68        0.0000000000
 Ene=          0.00007674
 Spin= Alpha
 Occup=        0.00000000
    1        0.9993492500
    2       -0.3478567800
    3       -0.1013548400
    4        0.0231264600
    5        0.0008434300
    6        0.0049143600
    7        0.0029336400
    8       -0.0021850700
    9       -0.0002506300
   10        0.0000146200
   11        0.0000000000
   12       -0.0000000000
   13        0.0623301500
   14        0.0000000000
   15       -0.0000000000
   16       -0.0144059400
   17       -0.0000000000
   18        0.0000000000
   19        0.0440076200
   20        0.0000000000
   21       -0.0000000000
   22       -0.0048714600
   23       -0.3977492100
   24       -0.3977492100
   25       -0.4012511300
   26       -0.0000000000
   27        0.0000000000
   28        0.0000000000
   29       -0.1904423500
   30       -0.1904423500
   31       -0.1884967600
   32       -0.0000000000
   33        0.0000000000
   34       -0.0000000000
   35        0.9993492600
   36       -0.3478567300
   37       -0.1013569900
   38        0.0230971000
   39        0.0008494500
   40        0.0049192800
   41        0.0029351700
   42       -0.0021857400
   43       -0.0002507500
   44        0.0000146300
   45       -0.0000000000
   46       -0.0000000000
   47       -0.0623295100
   48       -0.0000000000
   49        0.0000000000
   50        0.0144073600
   51        0.0000000000
   52       -0.0000000000
   53       -0.0440067400
   54        0.0000000000
   55        0.0000000000
   56        0.0048762200
   57       -0.3977246000
   58       -0.3977246000
   59       -0.4012264200
   60        0.0000000000
   61       -0.0000000000
   62       -0.0000000000
   63       -0.1904394900
   64       -0.1904394900
   65       -0.1884937400
   66        0.0000000000
   67       -0.0000000000
   68        0.0000000000
 Ene=          0.00013736
 Spin= Alpha
 Occup=        0.00000000
    1        0.0076298100
    2       -0.0116496300
    3       -0.1753734100
    4       -1.0962484200
    5       -0.0132547700
    6       -0.0002025000
    7       -0.0010516100
    8        0.0005119300
    9       -0.0000027600
   10        0.0000052600
   11        0.0000000000
   12       -0.0000000000
   13       -0.1683106700
   14       -0.0000000000
   15       -0.0000000000
   16        0.3523495700
   17        0.0000000000
   18       -0.0000000000
   19        0.0479228400
   20       -0.0000000000
   21       -0.0000000000
   22       -0.1444431600
   23      -11.9935772800
   24      -11.9935772800
   25      -12.0278788400
   26       -0.0000000000
   27        0.0000000000
   28       -0.0000000000
   29       -2.6708987200
   30       -2.6708987200
   31       -2.6772598300
   32        0.0000000000
   33       -0.0000000000
   34       -0.0000000000
   35       -0.0076392900
   36        0.0116520300
   37        0.1753736300
   38        1.0962480300
   39        0.0132547100
   40        0.0002022800
   41        0.0010514800
   42       -0.0005118200
   43        0.0000027900
   44       -0.0000052600
   45       -0.0000000000
   46        0.0000000000
   47       -0.1683101100
   48        0.0000000000
   49        0.0000000000
   50        0.3523494800
   51       -0.0000000000
   52        0.0000000000
   53        0.0479222200
   54        0.0000000000
   55        0.0000000000
   56       -0.1444425800
   57       11.9935803400
   58       11.9935803400
   59       12.0278818800
   60        0.0000000000
   61        0.0000000000
   62       -0.0000000000
   63        2.6709001400
   64        2.6709001400
   65        2.6772613400
   66       -0.0000000000
   67       -0.0000000000
   68       -0.0000000000
 Ene=          0.00021046
 Spin= Alpha
 Occup=        0.00000000
    1        0.0000000000
    2        0.0000000000
    3        0.0000000000
    4       -0.0000000000
    5        0.0000000000
    6       -0.0000000000
    7       -0.0000000000
    8        0.0000000000
    9        0.0000000000
   10       -0.0000000000
   11       -0.0004253900
   12       -0.6511933800
   13        0.0000000000
   14        0.0000906500
   15        0.1387751700
   16        0.0000000000
   17       -0.0000113900
   18       -0.0174386700
   19        0.0000000000
   20        0.0000020500
   21        0.0031357200
   22       -0.0000000000
   23       -0.0000000000
   24       -0.0000000000
   25        0.0000000000
   26       -0.0000000000
   27        0.0026455900
   28        4.0499531000
   29        0.0000000000
   30        0.0000000000
   31        0.0000000000
   32        0.0000000000
   33       -0.0004432900
   34       -0.6786070300
   35       -0.0000000000
   36       -0.0000000000
   37       -0.0000000000
   38        0.0000000000
   39       -0.0000000000
   40        0.0000000000
   41       -0.0000000000
   42        0.0000000000
   43       -0.0000000000
   44        0.0000000000
   45       -0.0004253900
   46       -0.6511933800
   47       -0.0000000000
   48        0.0000906500
   49        0.1387751700
   50       -0.0000000000
   51       -0.0000113900
   52       -0.0174382800
   53       -0.0000000000
   54        0.0000020500
   55        0.0031353600
   56       -0.0000000000
   57        0.0000000000
   58        0.0000000000
   59       -0.0000000000
   60        0.0000000000
   61       -0.0026455900
   62       -4.0499531200
   63       -0.0000000000
   64       -0.0000000000
   65        0.0000000000
   66       -0.0000000000
   67        0.0004432900
   68        0.6786069800
 Ene=          0.00021046
 Spin= Alpha
 Occup=        0.00000000
    1        0.0000000000
    2       -0.0000000000
    3       -0.0000000000
    4       -0.0000000000
    5        0.0000000000
    6       -0.0000000000
    7        0.0000000000
    8       -0.0000000000
    9       -0.0000000000
   10        0.0000000000
   11        0.6511933800
   12       -0.0004253900
   13        0.0000000000
   14       -0.1387751700
   15        0.0000906500
   16        0.0000000000
   17        0.0174386700
   18       -0.0000113900
   19       -0.0000000000
   20       -0.0031357200
   21        0.0000020500
   22       -0.0000000000
   23        0.0000000000
   24       -0.0000000000
   25        0.0000000000
   26       -0.0000000000
   27       -4.0499531000
   28        0.0026455900
   29       -0.0000000000
   30       -0.0000000000
   31       -0.0000000000
   32        0.0000000000
   33        0.6786070300
   34       -0.0004432900
   35       -0.0000000000
   36        0.0000000000
   37        0.0000000000
   38        0.0000000000
   39       -0.0000000000
   40        0.0000000000
   41       -0.0000000000
   42       -0.0000000000
   43       -0.0000000000
   44        0.0000000000
   45        0.6511933800
   46       -0.0004253900
   47       -0.0000000000
   48       -0.1387751700
   49        0.0000906500
   50       -0.0000000000
   51        0.0174382800
   52       -0.0000113900
   53       -0.0000000000
   54       -0.0031353600
   55        0.0000020500
   56       -0.0000000000
   57       -0.0000000000
   58        0.0000000000
   59       -0.0000000000
   60        0.0000000000
   61        4.0499531200
   62       -0.0026455900
   63        0.0000000000
   64        0.0000000000
   65        0.0000000000
   66       -0.0000000000
   67       -0.6786069800
   68        0.0004432900
 Ene=          0.00032600
 Spin= Alpha
 Occup=        0.00000000
    1       -0.0160337200
    2        0.0722920300
    3       -0.0653883400
    4       -0.0024162600
    5        0.0047846800
    6       -0.0011308700
    7        0.0005913400
    8       -0.0002322500
    9        0.0000194000
   10       -0.0000048700
   11        0.0000000000
   12        0.0000000000
   13        0.0213094100
   14       -0.0000000000
   15       -0.0000000000
   16       -0.0008959800
   17        0.0000000000
   18        0.0000000000
   19        0.3123071000
   20       -0.0000000000
   21       -0.0000000000
   22       -0.0311914900
   23        0.2895519200
   24        0.2895519200
   25       -0.5497159800
   26        0.0000000000
   27       -0.0000000000
   28       -0.0000000000
   29       -0.0744819200
   30       -0.0744819200
   31        0.0994955200
   32       -0.0000000000
   33        0.0000000000
   34        0.0000000000
   35       -0.0160337100
   36        0.0722920200
   37       -0.0653885100
   38       -0.0024179100
   39        0.0047850900
   40       -0.0011305600
   41        0.0005914400
   42       -0.0002323000
   43        0.0000193900
   44       -0.0000048700
   45       -0.0000000000
   46       -0.0000000000
   47       -0.0213090700
   48        0.0000000000
   49        0.0000000000
   50        0.0008958200
   51       -0.0000000000
   52       -0.0000000000
   53       -0.3123070500
   54        0.0000000000
   55        0.0000000000
   56        0.0311917700
   57        0.2895464400
   58        0.2895464400
   59       -0.5497219400
   60        0.0000000000
   61       -0.0000000000
   62       -0.0000000000
   63       -0.0744833200
   64       -0.0744833200
   65        0.0994937600
   66       -0.0000000000
   67        0.0000000000
   68        0.0000000000
 Ene=          0.00032622
 Spin= Alpha
 Occup=        0.00000000
    1       -0.0000000000
    2        0.0000000000
    3       -0.0000000000
    4       -0.0000000000
    5        0.0000000000
    6       -0.0000000000
    7        0.0000000000
    8       -0.0000000000
    9        0.0000000000
   10       -0.0000000000
   11        0.0010845500
   12       -0.0129315200
   13        0.0000000000
   14       -0.0003809500
   15        0.0045422200
   16        0.0000000000
   17        0.0316925200
   18       -0.3778822200
   19        0.0000000000
   20       -0.0034692000
   21        0.0413646500
   22       -0.0000000000
   23        0.0000000000
   24        0.0000000000
   25       -0.0000000000
   26        0.0000000000
   27       -0.0468395500
   28        0.5584860300
   29       -0.0000000000
   30       -0.0000000000
   31        0.0000000000
   32        0.0000000000
   33        0.0098052200
   34       -0.1169114200
   35       -0.0000000000
   36        0.0000000000
   37       -0.0000000000
   38        0.0000000000
   39        0.0000000000
   40       -0.0000000000
   41        0.0000000000
   42       -0.0000000000
   43        0.0000000000
   44       -0.0000000000
   45       -0.0010845400
   46        0.0129314200
   47       -0.0000000000
   48        0.0003809500
   49       -0.0045421600
   50        0.0000000000
   51       -0.0316925200
   52        0.3778822100
   53       -0.0000000000
   54        0.0034692000
   55       -0.0413646600
   56        0.0000000000
   57        0.0000000000
   58        0.0000000000
   59       -0.0000000000
   60       -0.0000000000
   61       -0.0468394500
   62        0.5584848400
   63       -0.0000000000
   64       -0.0000000000
   65        0.0000000000
   66       -0.0000000000
   67        0.0098051800
   68       -0.1169109700
 Ene=          0.00032622
 Spin= Alpha
 Occup=        0.00000000
    1        0.0000000000
    2       -0.0000000000
    3        0.0000000000
    4        0.0000000000
    5       -0.0000000000
    6        0.0000000000
    7       -0.0000000000
    8        0.0000000000
    9       -0.0000000000
   10        0.0000000000
   11        0.0129315200
   12        0.0010845500
   13       -0.0000000000
   14       -0.0045422200
   15       -0.0003809500
   16       -0.0000000000
   17        0.3778822200
   18        0.0316925200
   19       -0.0000000000
   20       -0.0413646500
   21       -0.0034692000
   22        0.0000000000
   23       -0.0000000000
   24       -0.0000000000
   25        0.0000000000
   26       -0.0000000000
   27       -0.5584860300
   28       -0.0468395500
   29        0.0000000000
   30        0.0000000000
   31       -0.0000000000
   32        0.0000000000
   33        0.1169114200
   34        0.0098052200
   35        0.0000000000
   36       -0.0000000000
   37        0.0000000000
   38       -0.0000000000
   39       -0.0000000000
   40        0.0000000000
   41       -0.0000000000
   42        0.0000000000
   43       -0.0000000000
   44        0.0000000000
   45       -0.0129314200
   46       -0.0010845400
   47        0.0000000000
   48        0.0045421600
   49        0.0003809500
   50        0.0000000000
   51       -0.3778822100
   52       -0.0316925200
   53        0.0000000000
   54        0.0413646600
   55        0.0034692000
   56       -0.0000000000
   57       -0.0000000000
   58       -0.0000000000
   59        0.0000000000
   60        0.0000000000
   61       -0.5584848400
   62       -0.0468394500
   63        0.0000000000
   64        0.0000000000
   65       -0.0000000000
   66       -0.0000000000
   67        0.1169109700
   68        0.0098051800
 Ene=          0.00032923
 Spin= Alpha
 Occup=        0.00000000
    1       -3.3643224100
    2        0.8489572400
    3        0.2937837700
    4       -0.0422206500
    5        0.0220731900
    6        0.0034353500
    7        0.0085251500
    8       -0.0052535900
    9       -0.0003550800
   10        0.0000005300
   11       -0.0000000000
   12        0.0000000000
   13       -0.1866717600
   14        0.0000000000
   15        0.0000000000
   16        0.0358152400
   17        0.0000000000
   18        0.0000000000
   19       -0.0851897300
   20       -0.0000000000
   21       -0.0000000000
   22        0.0326825800
   23        0.7551456100
   24        0.7551456100
   25        0.7733509000
   26       -0.0000000000
   27       -0.0000000000
   28       -0.0000000000
   29        0.4646671100
   30        0.4646671100
   31        0.4472481000
   32        0.0000000000
   33       -0.0000000000
   34        0.0000000000
   35       -3.3643218600
   36        0.8489569900
   37        0.2937722900
   38       -0.0423332700
   39        0.0220860500
   40        0.0034459600
   41        0.0085284300
   42       -0.0052550400
   43       -0.0003553500
   44        0.0000005500
   45        0.0000000000
   46       -0.0000000000
   47        0.1866911700
   48        0.0000000000
   49       -0.0000000000
   50       -0.0358234100
   51       -0.0000000000
   52       -0.0000000000
   53        0.0851902300
   54        0.0000000000
   55        0.0000000000
   56       -0.0326657400
   57        0.7548204600
   58        0.7548204600
   59        0.7730268400
   60       -0.0000000000
   61       -0.0000000000
   62       -0.0000000000
   63        0.4645783100
   64        0.4645783100
   65        0.4471602500
   66       -0.0000000000
   67        0.0000000000
   68        0.0000000000
 Ene=          0.00033113
 Spin= Alpha
 Occup=        0.00000000
    1       -0.0000000000
    2        0.0000000000
    3        0.0000000000
    4        0.0000000000
    5        0.0000000000
    6        0.0000000000
    7        0.0000000000
    8       -0.0000000000
    9       -0.0000000000
   10       -0.0000000000
   11        0.0000000000
   12       -0.0000000000
   13        0.0000000000
   14        0.0000000000
   15        0.0000000000
   16       -0.0000000000
   17        0.0000000000
   18        0.0000000000
   19       -0.0000000000
   20       -0.0000000000
   21       -0.0000000000
   22        0.0000000000
   23       -0.0923370000
   24        0.0923370000
   25        0.0000000000
   26       -0.5384402600
   27       -0.0000000000
   28       -0.0000000000
   29        0.0149801800
   30       -0.0149801800
   31        0.0000000000
   32        0.0873532200
   33        0.0000000000
   34       -0.0000000000
   35       -0.0000000000
   36        0.0000000000
   37        0.0000000000
   38       -0.0000000000
   39        0.0000000000
   40        0.0000000000
   41        0.0000000000
   42       -0.0000000000
   43       -0.0000000000
   44        0.0000000000
   45       -0.0000000000
   46       -0.0000000000
   47        0.0000000000
   48        0.0000000000
   49        0.0000000000
   50       -0.0000000000
   51       -0.0000000000
   52       -0.0000000000
   53        0.0000000000
   54        0.0000000000
   55        0.0000000000
   56        0.0000000000
   57       -0.0923370500
   58        0.0923370500
   59       -0.0000000000
   60       -0.5384406100
   61        0.0000000000
   62       -0.0000000000
   63        0.0149801400
   64       -0.0149801400
   65       -0.0000000000
   66        0.0873529400
   67        0.0000000000
   68        0.0000000000
 Ene=          0.00033113
 Spin= Alpha
 Occup=        0.00000000
    1        0.0000000000
    2       -0.0000000000
    3       -0.0000000000
    4       -0.0000000000
    5       -0.0000000000
    6       -0.0000000000
    7       -0.0000000000
    8        0.0000000000
    9        0.0000000000
   10        0.0000000000
   11        0.0000000000
   12        0.0000000000
   13        0.0000000000
   14       -0.0000000000
   15       -0.0000000000
   16        0.0000000000
   17        0.0000000000
   18        0.0000000000
   19        0.0000000000
   20       -0.0000000000
   21       -0.0000000000
   22       -0.0000000000
   23        0.4663029500
   24       -0.4663029500
   25       -0.0000000000
   26       -0.1066215800
   27       -0.0000000000
   28       -0.0000000000
   29       -0.0756501100
   30        0.0756501100
   31       -0.0000000000
   32        0.0172976300
   33        0.0000000000
   34        0.0000000000
   35        0.0000000000
   36       -0.0000000000
   37       -0.0000000000
   38        0.0000000000
   39       -0.0000000000
   40       -0.0000000000
   41       -0.0000000000
   42        0.0000000000
   43        0.0000000000
   44       -0.0000000000
   45       -0.0000000000
   46       -0.0000000000
   47       -0.0000000000
   48       -0.0000000000
   49        0.0000000000
   50        0.0000000000
   51       -0.0000000000
   52       -0.0000000000
   53       -0.0000000000
   54        0.0000000000
   55        0.0000000000
   56       -0.0000000000
   57        0.4663032400
   58       -0.4663032400
   59        0.0000000000
   60       -0.1066216500
   61       -0.0000000000
   62        0.0000000000
   63       -0.0756498700
   64        0.0756498700
   65        0.0000000000
   66        0.0172975700
   67       -0.0000000000
   68       -0.0000000000
 Ene=          0.00042916
 Spin= Alpha
 Occup=        0.00000000
    1        0.0393181200
    2       -0.0231992000
    3       -0.3937653400
    4       -2.9798315600
    5       -0.0021009200
    6        0.0104245100
    7        0.0013172500
    8       -0.0011278600
    9       -0.0001452900
   10        0.0000096100
   11        0.0000000000
   12       -0.0000000000
   13       -1.4639020900
   14       -0.0000000000
   15       -0.0000000000
   16        0.7078403600
   17        0.0000000000
   18        0.0000000000
   19        0.0920138800
   20       -0.0000000000
   21       -0.0000000000
   22       -0.3910299200
   23      -21.8072759500
   24      -21.8072759200
   25      -17.4633905700
   26       -0.0000000000
   27       -0.0000000000
   28       -0.0000000000
   29       -5.2917205600
   30       -5.2917205700
   31       -5.5917352100
   32        0.0000000000
   33       -0.0000000000
   34       -0.0000000000
   35       -0.0394077500
   36        0.0232248100
   37        0.3937755900
   38        2.9798310700
   39        0.0021016600
   40       -0.0104238000
   41       -0.0013166600
   42        0.0011274300
   43        0.0001451700
   44       -0.0000096000
   45       -0.0000000000
   46        0.0000000000
   47       -1.4638972000
   48        0.0000000000
   49        0.0000000000
   50        0.7078392000
   51       -0.0000000000
   52       -0.0000000000
   53        0.0920194700
   54        0.0000000000
   55        0.0000000000
   56       -0.3910330100
   57       21.8072943500
   58       21.8072943100
   59       17.4634091700
   60        0.0000000000
   61        0.0000000000
   62        0.0000000000
   63        5.2917337000
   64        5.2917337000
   65        5.5917475100
   66       -0.0000000000
   67       -0.0000000000
   68       -0.0000000000
 Ene=          0.00043196
 Spin= Alpha
 Occup=        0.00000000
    1       -0.0030384200
    2       -0.0016712700
    3       -0.0009902300
    4        0.5323557600
    5       -0.0038710200
    6        0.0023316700
    7        0.0001087500
    8       -0.0001624200
    9       -0.0000329200
   10        0.0000030600
   11       -0.0000000000
   12        0.0000000000
   13        0.3106491900
   14        0.0000000000
   15        0.0000000000
   16        0.0435873300
   17        0.0000000000
   18       -0.0000000000
   19        0.0176136400
   20       -0.0000000000
   21        0.0000000000
   22        0.0613114800
   23       11.9869635000
   24       11.9869643300
   25      -13.4410559300
   26        0.0000000000
   27        0.0000000000
   28       -0.0000000000
   29       -2.1389473400
   30       -2.1389474000
   31       -0.0986580000
   32       -0.0000000000
   33       -0.0000000000
   34        0.0000000000
   35        0.0030231800
   36        0.0016756500
   37        0.0009919700
   38       -0.5323558400
   39        0.0038711500
   40       -0.0023315500
   41       -0.0001086500
   42        0.0001623500
   43        0.0000329000
   44       -0.0000030600
   45        0.0000000000
   46       -0.0000000000
   47        0.3106500200
   48       -0.0000000000
   49       -0.0000000000
   50        0.0435871300
   51        0.0000000000
   52       -0.0000000000
   53        0.0176145600
   54       -0.0000000000
   55        0.0000000000
   56        0.0613109700
   57      -11.9869603700
   58      -11.9869612000
   59       13.4410590600
   60       -0.0000000000
   61       -0.0000000000
   62        0.0000000000
   63        2.1389495600
   64        2.1389496300
   65        0.0986601100
   66        0.0000000000
   67        0.0000000000
   68       -0.0000000000
 Ene=          0.00043234
 Spin= Alpha
 Occup=        0.00000000
    1        0.0000000000
    2        0.0000000000
    3        0.0000000000
    4       -0.0000000100
    5        0.0000000000
    6       -0.0000000000
    7       -0.0000000000
    8        0.0000000000
    9        0.0000000000
   10       -0.0000000000
   11        0.0000000000
   12       -0.0000000000
   13       -0.0000000100
   14        0.0000000000
   15        0.0000000000
   16       -0.0000000000
   17        0.0000000000
   18        0.0000000000
   19       -0.0000000000
   20       -0.0000000000
   21       -0.0000000000
   22       -0.0000000000
   23      -19.9826354500
   24       19.9826349900
   25        0.0000002900
   26       -0.0022659100
   27        0.0000000000
   28        0.0000000000
   29        1.5951260200
   30       -1.5951259200
   31        0.0000000100
   32        0.0001808800
   33       -0.0000000000
   34       -0.0000000000
   35       -0.0000000000
   36       -0.0000000000
   37       -0.0000000000
   38        0.0000000100
   39       -0.0000000000
   40        0.0000000000
   41        0.0000000000
   42       -0.0000000000
   43       -0.0000000000
   44        0.0000000000
   45       -0.0000000000
   46        0.0000000000
   47       -0.0000000100
   48       -0.0000000000
   49       -0.0000000000
   50       -0.0000000000
   51        0.0000000000
   52        0.0000000000
   53       -0.0000000000
   54       -0.0000000000
   55       -0.0000000000
   56       -0.0000000000
   57       19.9826354300
   58      -19.9826349800
   59       -0.0000002900
   60        0.0022659100
   61       -0.0000000000
   62       -0.0000000000
   63       -1.5951260100
   64        1.5951259200
   65       -0.0000000100
   66       -0.0001808800
   67        0.0000000000
   68        0.0000000000
 Ene=          0.00043234
 Spin= Alpha
 Occup=        0.00000000
    1       -0.0000000000
    2        0.0000000000
    3        0.0000000000
    4        0.0000000000
    5       -0.0000000000
    6        0.0000000000
    7       -0.0000000000
    8        0.0000000000
    9       -0.0000000000
   10        0.0000000000
   11        0.0000000000
   12        0.0000000000
   13        0.0000000000
   14        0.0000000000
   15       -0.0000000000
   16       -0.0000000000
   17       -0.0000000000
   18        0.0000000000
   19        0.0000000000
   20        0.0000000000
   21       -0.0000000000
   22        0.0000000000
   23        0.0019623400
   24       -0.0019623400
   25       -0.0000000000
   26      -23.0739596500
   27       -0.0000000000
   28        0.0000000000
   29       -0.0001566400
   30        0.0001566400
   31        0.0000000000
   32        1.8418928200
   33        0.0000000000
   34       -0.0000000000
   35       -0.0000000000
   36       -0.0000000000
   37       -0.0000000000
   38       -0.0000000000
   39        0.0000000000
   40       -0.0000000000
   41        0.0000000000
   42       -0.0000000000
   43        0.0000000000
   44       -0.0000000000
   45       -0.0000000000
   46       -0.0000000000
   47        0.0000000000
   48       -0.0000000000
   49       -0.0000000000
   50       -0.0000000000
   51       -0.0000000000
   52        0.0000000000
   53        0.0000000000
   54        0.0000000000
   55       -0.0000000000
   56        0.0000000000
   57       -0.0019623400
   58        0.0019623400
   59        0.0000000000
   60       23.0739596300
   61        0.0000000000
   62       -0.0000000000
   63        0.0001566400
   64       -0.0001566400
   65       -0.0000000000
   66       -1.8418928100
   67       -0.0000000000
   68        0.0000000000
 Ene=          0.00044520
 Spin= Alpha
 Occup=        0.00000000
    1        0.0000000000
    2        0.0000000000
    3        0.0000000000
    4        0.0000000000
    5       -0.0000000000
    6        0.0000000000
    7       -0.0000000000
    8       -0.0000000000
    9       -0.0000000000
   10       -0.0000000000
   11       -0.0001041700
   12       -0.1632059300
   13       -0.0000000000
   14       -0.0000681600
   15       -0.1067802800
   16        0.0000000000