[Molden Format]
[Title]
 Molden2AIM, Version 3.1.0 (02/25/2015)           Time: Wed Oct 16 15:01:38 2024

[Atoms] AU
E+       1       4     0.00000000     0.00000000     0.00000000
E+       2       4     4.63600000     0.00000000     0.00000000
[GTO]
    1 0
 S   1 1.0
    0.1000000000D-03      0.1000000000D+01
 S   1 1.0
    0.3000000000D-03      0.1000000000D+01
 S   1 1.0
    0.9000000000D-03      0.1000000000D+01
 S   1 1.0
    0.2700000000D-02      0.1000000000D+01
 S   1 1.0
    0.8100000000D-02      0.1000000000D+01
 S   1 1.0
    0.2430000000D-01      0.1000000000D+01
 S   1 1.0
    0.7290000000D-01      0.1000000000D+01
 S   1 1.0
    0.2187000000D+00      0.1000000000D+01
 S   1 1.0
    0.6561000000D+00      0.1000000000D+01
 S   1 1.0
    0.1968300000D+01      0.1000000000D+01
 P   1 1.0
    0.1000000000D-03      0.1000000000D+01
 P   1 1.0
    0.3000000000D-03      0.1000000000D+01
 P   1 1.0
    0.9000000000D-03      0.1000000000D+01
 P   1 1.0
    0.2700000000D-02      0.1000000000D+01
 D   1 1.0
    0.1000000000D-03      0.1000000000D+01
 D   1 1.0
    0.3000000000D-03      0.1000000000D+01

    2 0
 S   1 1.0
    0.1000000000D-03      0.1000000000D+01
 S   1 1.0
    0.3000000000D-03      0.1000000000D+01
 S   1 1.0
    0.9000000000D-03      0.1000000000D+01
 S   1 1.0
    0.2700000000D-02      0.1000000000D+01
 S   1 1.0
    0.8100000000D-02      0.1000000000D+01
 S   1 1.0
    0.2430000000D-01      0.1000000000D+01
 S   1 1.0
    0.7290000000D-01      0.1000000000D+01
 S   1 1.0
    0.2187000000D+00      0.1000000000D+01
 S   1 1.0
    0.6561000000D+00      0.1000000000D+01
 S   1 1.0
    0.1968300000D+01      0.1000000000D+01
 P   1 1.0
    0.1000000000D-03      0.1000000000D+01
 P   1 1.0
    0.3000000000D-03      0.1000000000D+01
 P   1 1.0
    0.9000000000D-03      0.1000000000D+01
 P   1 1.0
    0.2700000000D-02      0.1000000000D+01
 D   1 1.0
    0.1000000000D-03      0.1000000000D+01
 D   1 1.0
    0.3000000000D-03      0.1000000000D+01


[MO]
 Ene=         -0.02132670
 Spin= Alpha
 Occup=        1.00000000
    1        0.0063285000
    2        0.0079361400
    3       -0.0127169000
    4       -0.0103735800
    5       -0.1620692100
    6       -0.2596711000
    7       -0.2561549400
    8        0.1889122400
    9        0.0137364300
   10       -0.0002711000
   11        0.0003361300
   12       -0.0000000000
   13        0.0000000000
   14        0.0008375100
   15       -0.0000000000
   16       -0.0000000000
   17        0.0260359200
   18        0.0000000000
   19       -0.0000000000
   20       -0.0302794100
   21        0.0000000000
   22        0.0000000000
   23       -0.0011575700
   24       -0.0007894900
   25       -0.0007894900
   26        0.0000000000
   27        0.0000000000
   28        0.0000000000
   29       -0.0025084700
   30       -0.0036549800
   31       -0.0036549800
   32       -0.0000000000
   33        0.0000000000
   34       -0.0000000000
   35        0.0063285000
   36        0.0079361400
   37       -0.0127169000
   38       -0.0103735800
   39       -0.1620692100
   40       -0.2596711000
   41       -0.2561549400
   42        0.1889122400
   43        0.0137364300
   44       -0.0002711000
   45       -0.0003361300
   46        0.0000000000
   47       -0.0000000000
   48       -0.0008375100
   49        0.0000000000
   50       -0.0000000000
   51       -0.0260359200
   52       -0.0000000000
   53        0.0000000000
   54        0.0302794100
   55       -0.0000000000
   56       -0.0000000000
   57       -0.0011575700
   58       -0.0007894900
   59       -0.0007894900
   60       -0.0000000000
   61       -0.0000000000
   62       -0.0000000000
   63       -0.0025084700
   64       -0.0036549800
   65       -0.0036549800
   66        0.0000000000
   67       -0.0000000000
   68        0.0000000000
 Ene=          0.00212667
 Spin= Alpha
 Occup=        0.00000000
    1        0.1307263600
    2        0.3150876800
    3       -1.0931975800
    4        0.5062866400
    5       -0.0956090300
    6        0.0946672300
    7        0.0103521300
    8       -0.0162906800
    9       -0.0032115500
   10        0.0003026700
   11        0.0067589900
   12       -0.0000000000
   13        0.0000000000
   14        0.0314628300
   15       -0.0000000000
   16        0.0000000000
   17        0.1093890600
   18        0.0000000000
   19        0.0000000000
   20       -0.1078871700
   21       -0.0000000000
   22       -0.0000000000
   23       -0.0189041800
   24       -0.0171415900
   25       -0.0171415900
   26       -0.0000000000
   27        0.0000000000
   28        0.0000000000
   29       -0.0847527900
   30       -0.0923245700
   31       -0.0923245700
   32        0.0000000000
   33       -0.0000000000
   34       -0.0000000000
   35        0.1307263600
   36        0.3150876800
   37       -1.0931975800
   38        0.5062866500
   39       -0.0956090300
   40        0.0946672300
   41        0.0103521300
   42       -0.0162906800
   43       -0.0032115500
   44        0.0003026700
   45       -0.0067589900
   46        0.0000000000
   47       -0.0000000000
   48       -0.0314628300
   49        0.0000000000
   50       -0.0000000000
   51       -0.1093890600
   52       -0.0000000000
   53       -0.0000000000
   54        0.1078871700
   55        0.0000000000
   56        0.0000000000
   57       -0.0189041800
   58       -0.0171415900
   59       -0.0171415900
   60        0.0000000000
   61       -0.0000000000
   62       -0.0000000000
   63       -0.0847527900
   64       -0.0923245700
   65       -0.0923245700
   66       -0.0000000000
   67        0.0000000000
   68       -0.0000000000
 Ene=          0.00292616
 Spin= Alpha
 Occup=        0.00000000
    1       -0.0045105100
    2       -0.0086388700
    3       -0.5459001600
    4       -8.1521641100
    5        0.3940722300
    6        0.0137002700
    7        0.0389356800
    8       -0.0190259300
    9        0.0001681100
   10       -0.0001977400
   11        0.1754996800
   12       -0.0000000000
   13        0.0000000000
   14        0.1510987800
   15        0.0000000000
   16        0.0000000000
   17       -0.8053039700
   18       -0.0000000000
   19       -0.0000000000
   20       -0.9010626500
   21        0.0000000000
   22        0.0000000000
   23        1.4230935700
   24        1.4020740700
   25        1.4020740700
   26       -0.0000000000
   27        0.0000000000
   28        0.0000000000
   29        2.7228488100
   30        2.7453177000
   31        2.7453177000
   32        0.0000000000
   33        0.0000000000
   34       -0.0000000000
   35        0.0045105100
   36        0.0086388700
   37        0.5459001600
   38        8.1521641100
   39       -0.3940722300
   40       -0.0137002700
   41       -0.0389356800
   42        0.0190259300
   43       -0.0001681100
   44        0.0001977400
   45        0.1754996800
   46        0.0000000000
   47       -0.0000000000
   48        0.1510987800
   49       -0.0000000000
   50       -0.0000000000
   51       -0.8053039700
   52        0.0000000000
   53        0.0000000000
   54       -0.9010626500
   55       -0.0000000000
   56       -0.0000000000
   57       -1.4230935700
   58       -1.4020740700
   59       -1.4020740700
   60       -0.0000000000
   61        0.0000000000
   62       -0.0000000000
   63       -2.7228488100
   64       -2.7453177000
   65       -2.7453177000
   66        0.0000000000
   67        0.0000000000
   68        0.0000000000
 Ene=          0.00341545
 Spin= Alpha
 Occup=        0.00000000
    1        0.0000000000
    2        0.0000000000
    3        0.0000000000
    4        0.0000000000
    5       -0.0000000000
    6        0.0000000000
    7       -0.0000000000
    8        0.0000000000
    9       -0.0000000000
   10        0.0000000000
   11        0.0000000000
   12       -0.0004504200
   13       -0.0262502000
   14        0.0000000000
   15        0.0020204500
   16        0.1177511600
   17        0.0000000000
   18       -0.0098050200
   19       -0.5714345800
   20        0.0000000000
   21       -0.0001253600
   22       -0.0073062300
   23        0.0000000000
   24        0.0000000000
   25        0.0000000000
   26       -0.0062810500
   27       -0.3660584800
   28        0.0000000000
   29        0.0000000000
   30        0.0000000000
   31        0.0000000000
   32        0.0038146200
   33        0.2223151100
   34       -0.0000000000
   35       -0.0000000000
   36       -0.0000000000
   37       -0.0000000000
   38       -0.0000000000
   39        0.0000000000
   40       -0.0000000000
   41        0.0000000000
   42       -0.0000000000
   43        0.0000000000
   44       -0.0000000000
   45       -0.0000000000
   46       -0.0004504200
   47       -0.0262502000
   48        0.0000000000
   49        0.0020204500
   50        0.1177511600
   51        0.0000000000
   52       -0.0098050200
   53       -0.5714345800
   54        0.0000000000
   55       -0.0001253600
   56       -0.0073062300
   57       -0.0000000000
   58       -0.0000000000
   59       -0.0000000000
   60        0.0062810500
   61        0.3660584800
   62       -0.0000000000
   63       -0.0000000000
   64       -0.0000000000
   65       -0.0000000000
   66       -0.0038146200
   67       -0.2223151100
   68        0.0000000000
 Ene=          0.00341545
 Spin= Alpha
 Occup=        0.00000000
    1        0.0000000000
    2        0.0000000000
    3       -0.0000000000
    4       -0.0000000000
    5        0.0000000000
    6       -0.0000000000
    7        0.0000000000
    8        0.0000000000
    9        0.0000000000
   10       -0.0000000000
   11        0.0000000000
   12        0.0262502000
   13       -0.0004504200
   14        0.0000000000
   15       -0.1177511600
   16        0.0020204500
   17        0.0000000000
   18        0.5714345800
   19       -0.0098050200
   20       -0.0000000000
   21        0.0073062300
   22       -0.0001253600
   23        0.0000000000
   24       -0.0000000000
   25        0.0000000000
   26        0.3660584800
   27       -0.0062810500
   28       -0.0000000000
   29       -0.0000000000
   30       -0.0000000000
   31       -0.0000000000
   32       -0.2223151100
   33        0.0038146200
   34        0.0000000000
   35       -0.0000000000
   36       -0.0000000000
   37        0.0000000000
   38        0.0000000000
   39       -0.0000000000
   40        0.0000000000
   41       -0.0000000000
   42       -0.0000000000
   43       -0.0000000000
   44        0.0000000000
   45       -0.0000000000
   46        0.0262502000
   47       -0.0004504200
   48       -0.0000000000
   49       -0.1177511600
   50        0.0020204500
   51       -0.0000000000
   52        0.5714345800
   53       -0.0098050200
   54       -0.0000000000
   55        0.0073062300
   56       -0.0001253600
   57       -0.0000000000
   58        0.0000000000
   59       -0.0000000000
   60       -0.3660584800
   61        0.0062810500
   62        0.0000000000
   63        0.0000000000
   64        0.0000000000
   65        0.0000000000
   66        0.2223151100
   67       -0.0038146200
   68       -0.0000000000
 Ene=          0.00659934
 Spin= Alpha
 Occup=        0.00000000
    1        0.0000000000
    2        0.0000000000
    3        0.0000000000
    4        0.0000000000
    5       -0.0000000000
    6        0.0000000000
    7        0.0000000000
    8       -0.0000000000
    9       -0.0000000000
   10        0.0000000000
   11        0.0000000000
   12        0.0004583100
   13        0.0002920300
   14        0.0000000000
   15       -0.0012115800
   16       -0.0007720200
   17        0.0000000000
   18        5.5826671500
   19        3.5572853000
   20        0.0000000000
   21        0.9162062200
   22        0.5838082100
   23       -0.0000000000
   24       -0.0000000000
   25       -0.0000000000
   26       -0.0305022300
   27       -0.0194360700
   28        0.0000000000
   29       -0.0000000000
   30       -0.0000000000
   31       -0.0000000000
   32        0.0902463700
   33        0.0575051400
   34        0.0000000000
   35        0.0000000000
   36        0.0000000000
   37       -0.0000000000
   38       -0.0000000000
   39        0.0000000000
   40       -0.0000000000
   41       -0.0000000000
   42        0.0000000000
   43        0.0000000000
   44       -0.0000000000
   45       -0.0000000000
   46       -0.0004583100
   47       -0.0002920300
   48       -0.0000000000
   49        0.0012115800
   50        0.0007720200
   51       -0.0000000000
   52       -5.5826671500
   53       -3.5572853000
   54        0.0000000000
   55       -0.9162062200
   56       -0.5838082100
   57        0.0000000000
   58        0.0000000000
   59        0.0000000000
   60       -0.0305022300
   61       -0.0194360700
   62       -0.0000000000
   63        0.0000000000
   64       -0.0000000000
   65       -0.0000000000
   66        0.0902463700
   67        0.0575051400
   68       -0.0000000000
 Ene=          0.00659934
 Spin= Alpha
 Occup=        0.00000000
    1        0.0000000000
    2        0.0000000000
    3       -0.0000000000
    4       -0.0000000000
    5       -0.0000000000
    6        0.0000000000
    7        0.0000000000
    8       -0.0000000000
    9        0.0000000000
   10       -0.0000000000
   11        0.0000000000
   12        0.0002920300
   13       -0.0004583100
   14        0.0000000000
   15       -0.0007720200
   16        0.0012115800
   17        0.0000000000
   18        3.5572853000
   19       -5.5826671500
   20        0.0000000000
   21        0.5838082100
   22       -0.9162062200
   23       -0.0000000000
   24       -0.0000000000
   25       -0.0000000000
   26       -0.0194360700
   27        0.0305022300
   28        0.0000000000
   29       -0.0000000000
   30       -0.0000000000
   31       -0.0000000000
   32        0.0575051400
   33       -0.0902463700
   34       -0.0000000000
   35        0.0000000000
   36        0.0000000000
   37       -0.0000000000
   38        0.0000000000
   39       -0.0000000000
   40        0.0000000000
   41        0.0000000000
   42       -0.0000000000
   43        0.0000000000
   44       -0.0000000000
   45       -0.0000000000
   46       -0.0002920300
   47        0.0004583100
   48       -0.0000000000
   49        0.0007720200
   50       -0.0012115800
   51       -0.0000000000
   52       -3.5572853000
   53        5.5826671500
   54       -0.0000000000
   55       -0.5838082100
   56        0.9162062200
   57        0.0000000000
   58        0.0000000000
   59        0.0000000000
   60       -0.0194360700
   61        0.0305022300
   62       -0.0000000000
   63        0.0000000000
   64        0.0000000000
   65        0.0000000000
   66        0.0575051400
   67       -0.0902463700
   68        0.0000000000
 Ene=          0.00663878
 Spin= Alpha
 Occup=        0.00000000
    1       -0.2706559900
    2       -0.5644652000
    3        0.5264744100
    4        0.4619769300
    5        0.0119006200
    6       -0.0031294900
    7       -0.0015573000
    8        0.0010914200
    9        0.0000014900
   10        0.0000112000
   11       -0.0149214800
   12        0.0000000000
   13       -0.0000000000
   14       -0.0545972800
   15        0.0000000000
   16       -0.0000000000
   17       -5.5797740300
   18        0.0000000000
   19       -0.0000000000
   20       -1.0101658900
   21        0.0000000000
   22       -0.0000000000
   23        0.0725749900
   24        0.0208862200
   25        0.0208862200
   26       -0.0000000000
   27        0.0000000000
   28       -0.0000000000
   29        0.0628947400
   30        0.2216772500
   31        0.2216772500
   32        0.0000000000
   33       -0.0000000000
   34       -0.0000000000
   35       -0.2706559900
   36       -0.5644652000
   37        0.5264744100
   38        0.4619769200
   39        0.0119006200
   40       -0.0031294900
   41       -0.0015573000
   42        0.0010914200
   43        0.0000014900
   44        0.0000112000
   45        0.0149214800
   46       -0.0000000000
   47        0.0000000000
   48        0.0545972800
   49       -0.0000000000
   50        0.0000000000
   51        5.5797740300
   52       -0.0000000000
   53        0.0000000000
   54        1.0101658900
   55       -0.0000000000
   56        0.0000000000
   57        0.0725749900
   58        0.0208862200
   59        0.0208862200
   60       -0.0000000000
   61        0.0000000000
   62        0.0000000000
   63        0.0628947400
   64        0.2216772500
   65        0.2216772500
   66        0.0000000000
   67       -0.0000000000
   68        0.0000000000
 Ene=          0.00736163
 Spin= Alpha
 Occup=        0.00000000
    1       -0.0039235000
    2       -0.0081534600
    3        0.0737212900
    4       -0.3426590000
    5       -0.0889617600
    6       -0.2486498100
    7       -0.0655454300
    8        0.0421473800
    9        0.0027090700
   10        0.0000047700
   11        0.1526643400
   12       -0.0000000000
   13        0.0000000000
   14        0.1465035500
   15        0.0000000000
   16        0.0000000000
   17       -0.7762072900
   18        0.0000000000
   19        0.0000000000
   20        0.6742406600
   21        0.0000000000
   22        0.0000000000
   23        1.2368057900
   24        1.2159665800
   25        1.2159665800
   26       -0.0000000000
   27        0.0000000000
   28        0.0000000000
   29        2.4254954200
   30        2.4479113900
   31        2.4479113900
   32        0.0000000000
   33        0.0000000000
   34       -0.0000000000
   35        0.0039235000
   36        0.0081534600
   37       -0.0737212900
   38        0.3426590000
   39        0.0889617600
   40        0.2486498100
   41        0.0655454300
   42       -0.0421473800
   43       -0.0027090700
   44       -0.0000047700
   45        0.1526643400
   46        0.0000000000
   47       -0.0000000000
   48        0.1465035500
   49       -0.0000000000
   50       -0.0000000000
   51       -0.7762072900
   52       -0.0000000000
   53        0.0000000000
   54        0.6742406600
   55       -0.0000000000
   56       -0.0000000000
   57       -1.2368057900
   58       -1.2159665800
   59       -1.2159665800
   60       -0.0000000000
   61       -0.0000000000
   62       -0.0000000000
   63       -2.4254954200
   64       -2.4479113900
   65       -2.4479113900
   66        0.0000000000
   67        0.0000000000
   68        0.0000000000
 Ene=          0.00867983
 Spin= Alpha
 Occup=        0.00000000
    1       -0.0824820800
    2        0.1524297000
    3       -0.8972206900
    4        1.4793133500
    5       -0.6603705400
    6        0.0486851700
    7       -0.1204126700
    8        0.0657536200
    9        0.0009510400
   10        0.0004713700
   11       -0.0042232500
   12       -0.0000000000
   13        0.0000000000
   14        0.0112264900
   15       -0.0000000000
   16        0.0000000000
   17        0.8490460800
   18       -0.0000000000
   19        0.0000000000
   20       -0.4820196600
   21       -0.0000000000
   22        0.0000000000
   23        0.0071977000
   24        0.0172494800
   25        0.0172494800
   26        0.0000000000
   27        0.0000000000
   28        0.0000000000
   29        0.0250636000
   30       -0.0034322200
   31       -0.0034322200
   32       -0.0000000000
   33       -0.0000000000
   34       -0.0000000000
   35       -0.0824820800
   36        0.1524297000
   37       -0.8972206900
   38        1.4793133900
   39       -0.6603705400
   40        0.0486851700
   41       -0.1204126700
   42        0.0657536200
   43        0.0009510400
   44        0.0004713700
   45        0.0042232500
   46        0.0000000000
   47       -0.0000000000
   48       -0.0112264900
   49        0.0000000000
   50       -0.0000000000
   51       -0.8490460800
   52        0.0000000000
   53       -0.0000000000
   54        0.4820196500
   55        0.0000000000
   56       -0.0000000000
   57        0.0071977000
   58        0.0172494800
   59        0.0172494800
   60       -0.0000000000
   61       -0.0000000000
   62       -0.0000000000
   63        0.0250636000
   64       -0.0034322200
   65       -0.0034322200
   66        0.0000000000
   67        0.0000000000
   68        0.0000000000
 Ene=          0.00874738
 Spin= Alpha
 Occup=        0.00000000
    1        0.0000000000
    2        0.0000000000
    3       -0.0000000000
    4       -0.0000000000
    5        0.0000000000
    6       -0.0000000000
    7        0.0000000000
    8       -0.0000000000
    9        0.0000000000
   10       -0.0000000000
   11       -0.0000000000
   12        0.0240519600
   13       -0.0000247600
   14       -0.0000000000
   15       -0.1098908700
   16        0.0001131400
   17       -0.0000000000
   18        0.6193729200
   19       -0.0006376600
   20       -0.0000000000
   21       -0.7399429200
   22        0.0007617900
   23       -0.0000000000
   24       -0.0000000000
   25       -0.0000000000
   26        0.3174960100
   27       -0.0003268700
   28       -0.0000000000
   29       -0.0000000000
   30       -0.0000000000
   31       -0.0000000000
   32       -0.1891985200
   33        0.0001947900
   34        0.0000000000
   35       -0.0000000000
   36       -0.0000000000
   37        0.0000000000
   38        0.0000000000
   39       -0.0000000000
   40        0.0000000000
   41        0.0000000000
   42       -0.0000000000
   43       -0.0000000000
   44        0.0000000000
   45       -0.0000000000
   46        0.0240519600
   47       -0.0000247600
   48       -0.0000000000
   49       -0.1098908700
   50        0.0001131400
   51       -0.0000000000
   52        0.6193729200
   53       -0.0006376600
   54       -0.0000000000
   55       -0.7399429200
   56        0.0007617900
   57        0.0000000000
   58        0.0000000000
   59        0.0000000000
   60       -0.3174960100
   61        0.0003268700
   62        0.0000000000
   63        0.0000000000
   64        0.0000000000
   65        0.0000000000
   66        0.1891985200
   67       -0.0001947900
   68       -0.0000000000
 Ene=          0.00874738
 Spin= Alpha
 Occup=        0.00000000
    1        0.0000000000
    2        0.0000000000
    3        0.0000000000
    4        0.0000000000
    5       -0.0000000000
    6        0.0000000000
    7       -0.0000000000
    8        0.0000000000
    9       -0.0000000000
   10        0.0000000000
   11       -0.0000000000
   12       -0.0000247600
   13       -0.0240519600
   14        0.0000000000
   15        0.0001131400
   16        0.1098908700
   17        0.0000000000
   18       -0.0006376600
   19       -0.6193729200
   20        0.0000000000
   21        0.0007617900
   22        0.7399429200
   23       -0.0000000000
   24       -0.0000000000
   25       -0.0000000000
   26       -0.0003268700
   27       -0.3174960100
   28       -0.0000000000
   29       -0.0000000000
   30       -0.0000000000
   31       -0.0000000000
   32        0.0001947900
   33        0.1891985200
   34        0.0000000000
   35       -0.0000000000
   36       -0.0000000000
   37       -0.0000000000
   38       -0.0000000000
   39        0.0000000000
   40       -0.0000000000
   41       -0.0000000000
   42        0.0000000000
   43        0.0000000000
   44        0.0000000000
   45       -0.0000000000
   46       -0.0000247600
   47       -0.0240519600
   48        0.0000000000
   49        0.0001131400
   50        0.1098908700
   51        0.0000000000
   52       -0.0006376600
   53       -0.6193729200
   54        0.0000000000
   55        0.0007617900
   56        0.7399429200
   57        0.0000000000
   58        0.0000000000
   59        0.0000000000
   60        0.0003268700
   61        0.3174960100
   62        0.0000000000
   63        0.0000000000
   64        0.0000000000
   65        0.0000000000
   66       -0.0001947900
   67       -0.1891985200
   68       -0.0000000000
 Ene=          0.01326120
 Spin= Alpha
 Occup=        0.00000000
    1       -0.0046501000
    2       -0.0078375600
    3       38.5826357700
    4      486.5449979700
    5       -1.0491391000
    6        0.2366588300
    7       -0.0081985200
    8       -0.0064212300
    9       -0.0029525700
   10        0.0003546300
   11        0.1774665300
   12        0.0000000100
   13       -0.0000000000
   14        0.1685589500
   15       -0.0000000200
   16       -0.0000000100
   17        1.8126623500
   18       -0.0000000000
   19       -0.0000000000
   20       59.8529017700
   21        0.0000000000
   22        0.0000000000
   23        1.6718902900
   24        1.2875523600
   25        1.2875523600
   26        0.0000000000
   27       -0.0000000000
   28       -0.0000000000
   29        2.6629711600
   30        3.0966443600
   31        3.0966443600
   32       -0.0000000000
   33       -0.0000000000
   34        0.0000000000
   35        0.0046501000
   36        0.0078375600
   37      -38.5826357700
   38     -486.5449979700
   39        1.0491391000
   40       -0.2366588300
   41        0.0081985200
   42        0.0064212300
   43        0.0029525700
   44       -0.0003546300
   45        0.1774665500
   46       -0.0000000100
   47        0.0000000000
   48        0.1685589200
   49        0.0000000200
   50        0.0000000100
   51        1.8126623500
   52        0.0000000000
   53        0.0000000000
   54       59.8529017700
   55       -0.0000000000
   56       -0.0000000000
   57       -1.6718902900
   58       -1.2875523600
   59       -1.2875523600
   60        0.0000000000
   61       -0.0000000000
   62        0.0000000000
   63       -2.6629711600
   64       -3.0966443600
   65       -3.0966443600
   66       -0.0000000000
   67       -0.0000000000
   68       -0.0000000000
 Ene=          0.01447220
 Spin= Alpha
 Occup=        0.00000000
    1        0.0000000000
    2        0.0000000000
    3       -0.0000000000
    4       -0.0000000000
    5        0.0000000000
    6       -0.0000000000
    7        0.0000000000
    8       -0.0000000000
    9        0.0000000000
   10       -0.0000000000
   11        0.0000000000
   12        0.0000856700
   13       -0.0003952600
   14        0.0000000000
   15       -0.0000701900
   16        0.0003238600
   17        0.0000000000
   18        1.7167937800
   19       -7.9208355200
   20       -0.0000000000
   21       -1.1245192900
   22        5.1882366400
   23        0.0000000000
   24        0.0000000000
   25        0.0000000000
   26       -0.0075285500
   27        0.0347347600
   28        0.0000000000
   29        0.0000000000
   30       -0.0000000000
   31       -0.0000000000
   32        0.0227647500
   33       -0.1050305900
   34       -0.0000000000
   35        0.0000000000
   36        0.0000000000
   37        0.0000000000
   38        0.0000000000
   39        0.0000000000
   40       -0.0000000000
   41        0.0000000000
   42       -0.0000000000
   43        0.0000000000
   44       -0.0000000000
   45        0.0000000000
   46       -0.0000856700
   47        0.0003952600
   48       -0.0000000000
   49        0.0000701900
   50       -0.0003238600
   51       -0.0000000000
   52       -1.7167937800
   53        7.9208355200
   54       -0.0000000000
   55        1.1245192900
   56       -5.1882366400
   57       -0.0000000000
   58       -0.0000000000
   59       -0.0000000000
   60       -0.0075285500
   61        0.0347347600
   62       -0.0000000000
   63       -0.0000000000
   64        0.0000000000
   65       -0.0000000000
   66        0.0227647500
   67       -0.1050305900
   68        0.0000000000
 Ene=          0.01447220
 Spin= Alpha
 Occup=        0.00000000
    1       -0.0000000000
    2       -0.0000000000
    3       -0.0000000000
    4       -0.0000000000
    5        0.0000000000
    6       -0.0000000000
    7       -0.0000000000
    8        0.0000000000
    9        0.0000000000
   10       -0.0000000000
   11       -0.0000000000
   12       -0.0003952600
   13       -0.0000856700
   14       -0.0000000000
   15        0.0003238600
   16        0.0000701900
   17       -0.0000000000
   18       -7.9208355200
   19       -1.7167937800
   20       -0.0000000000
   21        5.1882366400
   22        1.1245192900
   23       -0.0000000000
   24       -0.0000000000
   25       -0.0000000000
   26        0.0347347600
   27        0.0075285500
   28       -0.0000000000
   29       -0.0000000000
   30       -0.0000000000
   31       -0.0000000000
   32       -0.1050305900
   33       -0.0227647500
   34       -0.0000000000
   35       -0.0000000000
   36       -0.0000000000
   37        0.0000000000
   38        0.0000000000
   39       -0.0000000000
   40        0.0000000000
   41        0.0000000000
   42       -0.0000000000
   43       -0.0000000000
   44        0.0000000000
   45       -0.0000000000
   46        0.0003952600
   47        0.0000856700
   48       -0.0000000000
   49       -0.0003238600
   50       -0.0000701900
   51       -0.0000000000
   52        7.9208355200
   53        1.7167937800
   54       -0.0000000000
   55       -5.1882366400
   56       -1.1245192900
   57        0.0000000000
   58        0.0000000000
   59        0.0000000000
   60        0.0347347600
   61        0.0075285500
   62        0.0000000000
   63        0.0000000000
   64        0.0000000000
   65        0.0000000000
   66       -0.1050305900
   67       -0.0227647500
   68        0.0000000000
 Ene=          0.01487220
 Spin= Alpha
 Occup=        0.00000000
    1       -0.5062248900
    2       -0.9014864600
    3        1.3126008300
    4       -0.0429243100
    5       -0.6044459300
    6        0.1119228300
    7       -0.0623676400
    8        0.0257503600
    9       -0.0015906700
   10        0.0004557000
   11       -0.0268651300
   12        0.0000000000
   13       -0.0000000000
   14       -0.0924490900
   15        0.0000000000
   16       -0.0000000000