 Entering Gaussian System, Link 0=g16
 Input=GaussDFTtest.com
 Output=GaussDFTtest.log
 Initial command:
 /opt/g16/l1.exe "/home/pohl/scratches/g16/Gau-1658640.inp" -scrdir="/home/pohl/scratches/g16/"
 Entering Link 1 = /opt/g16/l1.exe PID=   1658642.
  
 Copyright (c) 1988-2017, Gaussian, Inc.  All Rights Reserved.
  
 This is part of the Gaussian(R) 16 program.  It is based on
 the Gaussian(R) 09 system (copyright 2009, Gaussian, Inc.),
 the Gaussian(R) 03 system (copyright 2003, Gaussian, Inc.),
 the Gaussian(R) 98 system (copyright 1998, Gaussian, Inc.),
 the Gaussian(R) 94 system (copyright 1995, Gaussian, Inc.),
 the Gaussian 92(TM) system (copyright 1992, Gaussian, Inc.),
 the Gaussian 90(TM) system (copyright 1990, Gaussian, Inc.),
 the Gaussian 88(TM) system (copyright 1988, Gaussian, Inc.),
 the Gaussian 86(TM) system (copyright 1986, Carnegie Mellon
 University), and the Gaussian 82(TM) system (copyright 1983,
 Carnegie Mellon University). Gaussian is a federally registered
 trademark of Gaussian, Inc.
  
 This software contains proprietary and confidential information,
 including trade secrets, belonging to Gaussian, Inc.
  
 This software is provided under written license and may be
 used, copied, transmitted, or stored only in accord with that
 written license.
  
 The following legend is applicable only to US Government
 contracts under FAR:
  
                    RESTRICTED RIGHTS LEGEND
  
 Use, reproduction and disclosure by the US Government is
 subject to restrictions as set forth in subparagraphs (a)
 and (c) of the Commercial Computer Software - Restricted
 Rights clause in FAR 52.227-19.
  
 Gaussian, Inc.
 340 Quinnipiac St., Bldg. 40, Wallingford CT 06492
  
  
 ---------------------------------------------------------------
 Warning -- This program may not be used in any manner that
 competes with the business of Gaussian, Inc. or will provide
 assistance to any competitor of Gaussian, Inc.  The licensee
 of this program is prohibited from giving any competitor of
 Gaussian, Inc. access to this program.  By using this program,
 the user acknowledges that Gaussian, Inc. is engaged in the
 business of creating and licensing software in the field of
 computational chemistry and represents and warrants to the
 licensee that it is not a competitor of Gaussian, Inc. and that
 it will not use this program in any manner prohibited above.
 ---------------------------------------------------------------
  

 Cite this work as:
 Gaussian 16, Revision B.01,
 M. J. Frisch, G. W. Trucks, H. B. Schlegel, G. E. Scuseria, 
 M. A. Robb, J. R. Cheeseman, G. Scalmani, V. Barone, 
 G. A. Petersson, H. Nakatsuji, X. Li, M. Caricato, A. V. Marenich, 
 J. Bloino, B. G. Janesko, R. Gomperts, B. Mennucci, H. P. Hratchian, 
 J. V. Ortiz, A. F. Izmaylov, J. L. Sonnenberg, D. Williams-Young, 
 F. Ding, F. Lipparini, F. Egidi, J. Goings, B. Peng, A. Petrone, 
 T. Henderson, D. Ranasinghe, V. G. Zakrzewski, J. Gao, N. Rega, 
 G. Zheng, W. Liang, M. Hada, M. Ehara, K. Toyota, R. Fukuda, 
 J. Hasegawa, M. Ishida, T. Nakajima, Y. Honda, O. Kitao, H. Nakai, 
 T. Vreven, K. Throssell, J. A. Montgomery, Jr., J. E. Peralta, 
 F. Ogliaro, M. J. Bearpark, J. J. Heyd, E. N. Brothers, K. N. Kudin, 
 V. N. Staroverov, T. A. Keith, R. Kobayashi, J. Normand, 
 K. Raghavachari, A. P. Rendell, J. C. Burant, S. S. Iyengar, 
 J. Tomasi, M. Cossi, J. M. Millam, M. Klene, C. Adamo, R. Cammi, 
 J. W. Ochterski, R. L. Martin, K. Morokuma, O. Farkas, 
 J. B. Foresman, and D. J. Fox, Gaussian, Inc., Wallingford CT, 2016.
 
 ******************************************
 Gaussian 16:  EM64L-G16RevB.01 20-Dec-2017
                26-Nov-2024 
 ******************************************
 %chk=test
 ------------------
 #p B3LYP/6-31G Opt
 ------------------
 1/18=20,19=15,26=3,38=1/1,3;
 2/9=110,12=2,17=6,18=5,40=1/2;
 3/5=1,6=6,11=2,25=1,30=1,71=1,74=-5/1,2,3;
 4//1;
 5/5=2,38=5/2;
 6/7=2,8=2,9=2,10=2,28=1/1;
 7//1,2,3,16;
 1/18=20,19=15,26=3/3(2);
 2/9=110/2;
 99//99;
 2/9=110/2;
 3/5=1,6=6,11=2,25=1,30=1,71=1,74=-5/1,2,3;
 4/5=5,16=3,69=1/1;
 5/5=2,38=5/2;
 7//1,2,3,16;
 1/18=20,19=15,26=3/3(-5);
 2/9=110/2;
 6/7=2,8=2,9=2,10=2,19=2,28=1/1;
 99/9=1/99;
 Leave Link    1 at Tue Nov 26 14:34:43 2024, MaxMem=           0 cpu:               0.0 elap:               0.0
 (Enter /opt/g16/l101.exe)
 ------------
 Un calculito
 ------------
 Symbolic Z-matrix:
 Charge =  0 Multiplicity = 1
 Be                    0.        0.        0. 
 
 ITRead=  0
 MicOpt= -1
 NAtoms=      1 NQM=        1 NQMF=       0 NMMI=      0 NMMIF=      0
                NMic=       0 NMicF=      0.
                    Isotopes and Nuclear Properties:
 (Nuclear quadrupole moments (NQMom) in fm**2, nuclear magnetic moments (NMagM)
  in nuclear magnetons)

  Atom         1
 IAtWgt=           9
 AtmWgt=   9.0121825
 NucSpn=           3
 AtZEff=  -0.0000000
 NQMom=    5.2880000
 NMagM=   -1.1779000
 AtZNuc=   4.0000000
 Leave Link  101 at Tue Nov 26 14:34:44 2024, MaxMem=   104857600 cpu:               0.1 elap:               0.2
 (Enter /opt/g16/l103.exe)

 GradGradGradGradGradGradGradGradGradGradGradGradGradGradGradGradGradGrad
 Berny optimization.
 Initialization pass.
 No Z-matrix variables, so optimization will use Cartesian coordinates.
 Trust Radius=1.00D-01 FncErr=1.00D-07 GrdErr=1.00D-06 EigMax=2.50D+02 EigMin=1.00D-04
 Number of steps in this run=     20 maximum allowed number of steps=    100.
 GradGradGradGradGradGradGradGradGradGradGradGradGradGradGradGradGradGrad

 Leave Link  103 at Tue Nov 26 14:34:44 2024, MaxMem=   104857600 cpu:               0.0 elap:               0.0
 (Enter /opt/g16/l202.exe)
                          Input orientation:                          
 ---------------------------------------------------------------------
 Center     Atomic      Atomic             Coordinates (Angstroms)
 Number     Number       Type             X           Y           Z
 ---------------------------------------------------------------------
      1          4           0        0.000000    0.000000    0.000000
 ---------------------------------------------------------------------
 Stoichiometry    Be
 Framework group  OH[O(Be)]
 Deg. of freedom     0
 Full point group                 OH      NOp  48
 Largest Abelian subgroup         D2H     NOp   8
 Largest concise Abelian subgroup C1      NOp   1
                         Standard orientation:                         
 ---------------------------------------------------------------------
 Center     Atomic      Atomic             Coordinates (Angstroms)
 Number     Number       Type             X           Y           Z
 ---------------------------------------------------------------------
      1          4           0        0.000000    0.000000    0.000000
 ---------------------------------------------------------------------
 Leave Link  202 at Tue Nov 26 14:34:44 2024, MaxMem=   104857600 cpu:               0.0 elap:               0.0
 (Enter /opt/g16/l301.exe)
 Standard basis: 6-31G (6D, 7F)
 Ernie: Thresh=  0.10000D-02 Tol=  0.10000D-05 Strict=F.
 There are     3 symmetry adapted cartesian basis functions of AG  symmetry.
 There are     0 symmetry adapted cartesian basis functions of B1G symmetry.
 There are     0 symmetry adapted cartesian basis functions of B2G symmetry.
 There are     0 symmetry adapted cartesian basis functions of B3G symmetry.
 There are     0 symmetry adapted cartesian basis functions of AU  symmetry.
 There are     2 symmetry adapted cartesian basis functions of B1U symmetry.
 There are     2 symmetry adapted cartesian basis functions of B2U symmetry.
 There are     2 symmetry adapted cartesian basis functions of B3U symmetry.
 There are     3 symmetry adapted basis functions of AG  symmetry.
 There are     0 symmetry adapted basis functions of B1G symmetry.
 There are     0 symmetry adapted basis functions of B2G symmetry.
 There are     0 symmetry adapted basis functions of B3G symmetry.
 There are     0 symmetry adapted basis functions of AU  symmetry.
 There are     2 symmetry adapted basis functions of B1U symmetry.
 There are     2 symmetry adapted basis functions of B2U symmetry.
 There are     2 symmetry adapted basis functions of B3U symmetry.
     9 basis functions,    22 primitive gaussians,     9 cartesian basis functions
     2 alpha electrons        2 beta electrons
       nuclear repulsion energy         0.0000000000 Hartrees.
 IExCor=  402 DFT=T Ex+Corr=B3LYP ExCW=0 ScaHFX=  0.200000
 ScaDFX=  0.800000  0.720000  1.000000  0.810000 ScalE2=  1.000000  1.000000
 IRadAn=      5 IRanWt=     -1 IRanGd=            0 ICorTp=0 IEmpDi=  4
 NAtoms=    1 NActive=    1 NUniq=    1 SFac= 1.00D+00 NAtFMM=   60 NAOKFM=F Big=F
 Integral buffers will be    131072 words long.
 Raffenetti 2 integral format.
 Two-electron integral symmetry is turned on.
 Leave Link  301 at Tue Nov 26 14:34:44 2024, MaxMem=   104857600 cpu:               0.0 elap:               0.0
 (Enter /opt/g16/l302.exe)
 NPDir=0 NMtPBC=     1 NCelOv=     1 NCel=       1 NClECP=     1 NCelD=      1
         NCelK=      1 NCelE2=     1 NClLst=     1 CellRange=     0.0.
 One-electron integrals computed using PRISM.
 One-electron integral symmetry used in STVInt
 NBasis=     9 RedAO= T EigKep=  1.29D-01  NBF=     3     0     0     0     0     2     2     2
 NBsUse=     9 1.00D-06 EigRej= -1.00D+00 NBFU=     3     0     0     0     0     2     2     2
 Precomputing XC quadrature grid using
 IXCGrd= 4 IRadAn=           5 IRanWt=          -1 IRanGd=           0 AccXCQ= 0.00D+00.
 Generated NRdTot=       0 NPtTot=           0 NUsed=           0 NTot=          32
 NSgBfM=     9     9     9     9     9 MxSgAt=     1 MxSgA2=     1.
 Leave Link  302 at Tue Nov 26 14:34:44 2024, MaxMem=   104857600 cpu:               0.1 elap:               0.1
 (Enter /opt/g16/l303.exe)
 DipDrv:  MaxL=1.
 Leave Link  303 at Tue Nov 26 14:34:44 2024, MaxMem=   104857600 cpu:               0.0 elap:               0.0
 (Enter /opt/g16/l401.exe)
 ExpMin= 8.23D-02 ExpMax= 1.26D+03 ExpMxC= 1.90D+02 IAcc=3 IRadAn=         5 AccDes= 0.00D+00
 Harris functional with IExCor=  402 and IRadAn=       5 diagonalized for initial guess.
 HarFok:  IExCor=  402 AccDes= 0.00D+00 IRadAn=         5 IDoV= 1 UseB2=F ITyADJ=14
 ICtDFT=  3500011 ScaDFX=  1.000000  1.000000  1.000000  1.000000
 FoFCou: FMM=F IPFlag=           0 FMFlag=      100000 FMFlg1=           0
         NFxFlg=           0 DoJE=T BraDBF=F KetDBF=T FulRan=T
         wScrn=  0.000000 ICntrl=       500 IOpCl=  0 I1Cent=   200000004 NGrid=           0
         NMat0=    1 NMatS0=      1 NMatT0=    0 NMatD0=    1 NMtDS0=    0 NMtDT0=    0
 Petite list used in FoFCou.
 Harris En= -14.6485432081087    
 JPrj=0 DoOrth=F DoCkMO=F.
 Initial guess orbital symmetries:
       Occupied  (A1G) (A1G)
       Virtual   (T1U) (T1U) (T1U) (T1U) (T1U) (T1U) (A1G)
 The electronic state of the initial guess is 1-A1G.
 Leave Link  401 at Tue Nov 26 14:34:44 2024, MaxMem=   104857600 cpu:               0.1 elap:               0.1
 (Enter /opt/g16/l502.exe)
 Keep R1 ints in memory in symmetry-blocked form, NReq=860879.
 FoFCou: FMM=F IPFlag=           0 FMFlag=           0 FMFlg1=           0
         NFxFlg=           0 DoJE=F BraDBF=F KetDBF=F FulRan=T
         wScrn=  0.000000 ICntrl=       600 IOpCl=  0 I1Cent=           0 NGrid=           0
         NMat0=    1 NMatS0=     45 NMatT0=    0 NMatD0=    1 NMtDS0=    0 NMtDT0=    0
 Petite list used in FoFCou.
 Closed shell SCF:
 Using DIIS extrapolation, IDIIS=  1040.
 NGot=   104857600 LenX=   104854762 LenY=   104853880
 Requested convergence on RMS density matrix=1.00D-08 within 128 cycles.
 Requested convergence on MAX density matrix=1.00D-06.
 Requested convergence on             energy=1.00D-06.
 No special actions if energy rises.
 Integral accuracy reduced to 1.0D-05 until final iterations.

 Cycle   1  Pass 0  IDiag  1:
 E= -14.6679461674008    
 DIIS: error= 5.44D-03 at cycle   1 NSaved=   1.
 NSaved= 1 IEnMin= 1 EnMin= -14.6679461674008     IErMin= 1 ErrMin= 5.44D-03
 ErrMax= 5.44D-03  0.00D+00 EMaxC= 1.00D-01 BMatC= 1.20D-04 BMatP= 1.20D-04
 IDIUse=3 WtCom= 9.46D-01 WtEn= 5.44D-02
 Coeff-Com:  0.100D+01
 Coeff-En:   0.100D+01
 Coeff:      0.100D+01
 Gap=     0.188 Goal=   None    Shift=    0.000
 GapD=    0.188 DampG=1.000 DampE=1.000 DampFc=1.0000 IDamp=-1.
 RMSDP=3.71D-03 MaxDP=2.46D-02              OVMax= 0.00D+00

 Cycle   2  Pass 0  IDiag  1:
 E= -14.6680622748278     Delta-E=       -0.000116107427 Rises=F Damp=F
 DIIS: error= 1.78D-04 at cycle   2 NSaved=   2.
 NSaved= 2 IEnMin= 2 EnMin= -14.6680622748278     IErMin= 2 ErrMin= 1.78D-04
 ErrMax= 1.78D-04  0.00D+00 EMaxC= 1.00D-01 BMatC= 2.23D-07 BMatP= 1.20D-04
 IDIUse=3 WtCom= 9.98D-01 WtEn= 1.78D-03
 Coeff-Com:  0.326D-01 0.967D+00
 Coeff-En:   0.000D+00 0.100D+01
 Coeff:      0.326D-01 0.967D+00
 Gap=     0.188 Goal=   None    Shift=    0.000
 RMSDP=3.01D-04 MaxDP=2.17D-03 DE=-1.16D-04 OVMax= 0.00D+00

 Cycle   3  Pass 0  IDiag  1:
 E= -14.6680629214506     Delta-E=       -0.000000646623 Rises=F Damp=F
 DIIS: error= 1.04D-05 at cycle   3 NSaved=   3.
 NSaved= 3 IEnMin= 3 EnMin= -14.6680629214506     IErMin= 3 ErrMin= 1.04D-05
 ErrMax= 1.04D-05  0.00D+00 EMaxC= 1.00D-01 BMatC= 5.90D-10 BMatP= 2.23D-07
 IDIUse=1 WtCom= 1.00D+00 WtEn= 0.00D+00
 Coeff-Com: -0.571D-03 0.386D-01 0.962D+00
 Coeff:     -0.571D-03 0.386D-01 0.962D+00
 Gap=     0.188 Goal=   None    Shift=    0.000
 RMSDP=1.35D-05 MaxDP=9.66D-05 DE=-6.47D-07 OVMax= 0.00D+00

 Cycle   4  Pass 0  IDiag  1:
 E= -14.6680629228985     Delta-E=       -0.000000001448 Rises=F Damp=F
 DIIS: error= 7.56D-10 at cycle   4 NSaved=   4.
 NSaved= 4 IEnMin= 4 EnMin= -14.6680629228985     IErMin= 4 ErrMin= 7.56D-10
 ErrMax= 7.56D-10  0.00D+00 EMaxC= 1.00D-01 BMatC= 2.51D-18 BMatP= 5.90D-10
 IDIUse=1 WtCom= 1.00D+00 WtEn= 0.00D+00
 Coeff-Com:  0.116D-07-0.558D-05-0.175D-03 0.100D+01
 Coeff:      0.116D-07-0.558D-05-0.175D-03 0.100D+01
 Gap=     0.188 Goal=   None    Shift=    0.000
 RMSDP=7.22D-10 MaxDP=5.03D-09 DE=-1.45D-09 OVMax= 0.00D+00

 Initial convergence to 1.0D-05 achieved.  Increase integral accuracy.
 Cycle   5  Pass 1  IDiag  1:
 E= -14.6680629204719     Delta-E=        0.000000002427 Rises=F Damp=F
 DIIS: error= 3.71D-09 at cycle   1 NSaved=   1.
 NSaved= 1 IEnMin= 1 EnMin= -14.6680629204719     IErMin= 1 ErrMin= 3.71D-09
 ErrMax= 3.71D-09  0.00D+00 EMaxC= 1.00D-01 BMatC= 5.79D-17 BMatP= 5.79D-17
 IDIUse=1 WtCom= 1.00D+00 WtEn= 0.00D+00
 Coeff-Com:  0.100D+01
 Coeff:      0.100D+01
 Gap=     0.188 Goal=   None    Shift=    0.000
 RMSDP=7.22D-10 MaxDP=5.03D-09 DE= 2.43D-09 OVMax= 0.00D+00

 Cycle   6  Pass 1  IDiag  1:
 E= -14.6680629204719     Delta-E=       -0.000000000000 Rises=F Damp=F
 DIIS: error= 2.41D-10 at cycle   2 NSaved=   2.
 NSaved= 2 IEnMin= 2 EnMin= -14.6680629204719     IErMin= 2 ErrMin= 2.41D-10
 ErrMax= 2.41D-10  0.00D+00 EMaxC= 1.00D-01 BMatC= 3.12D-19 BMatP= 5.79D-17
 IDIUse=1 WtCom= 1.00D+00 WtEn= 0.00D+00
 Coeff-Com:  0.261D-01 0.974D+00
 Coeff:      0.261D-01 0.974D+00
 Gap=     0.188 Goal=   None    Shift=    0.000
 RMSDP=3.24D-10 MaxDP=2.31D-09 DE=-7.11D-15 OVMax= 0.00D+00

 SCF Done:  E(RB3LYP) =  -14.6680629205     A.U. after    6 cycles
            NFock=  6  Conv=0.32D-09     -V/T= 2.0002
 KE= 1.466459862184D+01 PE=-3.379508341160D+01 EE= 4.462421869294D+00
 Leave Link  502 at Tue Nov 26 14:34:44 2024, MaxMem=   104857600 cpu:               0.1 elap:               0.1
 (Enter /opt/g16/l601.exe)
 Copying SCF densities to generalized density rwf, IOpCl= 0 IROHF=0.

 **********************************************************************

            Population analysis using the SCF Density.

 **********************************************************************

 Orbital symmetries:
       Occupied  (A1G) (A1G)
       Virtual   (T1U) (T1U) (T1U) (T1U) (T1U) (T1U) (A1G)
 The electronic state is 1-A1G.
 Alpha  occ. eigenvalues --   -4.06450  -0.22379
 Alpha virt. eigenvalues --   -0.03606  -0.03606  -0.03606   0.28815   0.28815
 Alpha virt. eigenvalues --    0.28815   0.31558
          Condensed to atoms (all electrons):
               1
     1  Be   4.000000
 Mulliken charges:
               1
     1  Be   0.000000
 Sum of Mulliken charges =   0.00000
 Mulliken charges with hydrogens summed into heavy atoms:
               1
     1  Be   0.000000
 Electronic spatial extent (au):  <R**2>=             15.4828
 Charge=              0.0000 electrons
 Dipole moment (field-independent basis, Debye):
    X=              0.0000    Y=              0.0000    Z=              0.0000  Tot=              0.0000
 Quadrupole moment (field-independent basis, Debye-Ang):
   XX=             -6.9416   YY=             -6.9416   ZZ=             -6.9416
   XY=              0.0000   XZ=              0.0000   YZ=              0.0000
 Traceless Quadrupole moment (field-independent basis, Debye-Ang):
   XX=              0.0000   YY=              0.0000   ZZ=              0.0000
   XY=              0.0000   XZ=              0.0000   YZ=              0.0000
 Octapole moment (field-independent basis, Debye-Ang**2):
  XXX=              0.0000  YYY=              0.0000  ZZZ=              0.0000  XYY=              0.0000
  XXY=              0.0000  XXZ=              0.0000  XZZ=              0.0000  YZZ=              0.0000
  YYZ=              0.0000  XYZ=              0.0000
 Hexadecapole moment (field-independent basis, Debye-Ang**3):
 XXXX=            -14.5828 YYYY=            -14.5828 ZZZZ=            -14.5828 XXXY=              0.0000
 XXXZ=              0.0000 YYYX=              0.0000 YYYZ=              0.0000 ZZZX=              0.0000
 ZZZY=              0.0000 XXYY=             -4.8609 XXZZ=             -4.8609 YYZZ=             -4.8609
 XXYZ=              0.0000 YYXZ=              0.0000 ZZXY=              0.0000
 N-N= 0.000000000000D+00 E-N=-3.379508341014D+01  KE= 1.466459862184D+01
 Symmetry AG   KE= 1.466459862184D+01
 Symmetry B1G  KE= 0.000000000000D+00
 Symmetry B2G  KE= 0.000000000000D+00
 Symmetry B3G  KE= 0.000000000000D+00
 Symmetry AU   KE= 0.000000000000D+00
 Symmetry B1U  KE= 0.000000000000D+00
 Symmetry B2U  KE= 0.000000000000D+00
 Symmetry B3U  KE= 0.000000000000D+00
 No NMR shielding tensors so no spin-rotation constants.
 Leave Link  601 at Tue Nov 26 14:34:44 2024, MaxMem=   104857600 cpu:               0.1 elap:               0.1
 (Enter /opt/g16/l701.exe)
 ... and contract with generalized density number  0.
 Compute integral first derivatives.
 Leave Link  701 at Tue Nov 26 14:34:44 2024, MaxMem=   104857600 cpu:               0.1 elap:               0.1
 (Enter /opt/g16/l702.exe)
 L702 exits ... SP integral derivatives will be done elsewhere.
 Leave Link  702 at Tue Nov 26 14:34:44 2024, MaxMem=   104857600 cpu:               0.0 elap:               0.0
 (Enter /opt/g16/l703.exe)
 Integral derivatives from FoFJK, PRISM(SPDF).
 Compute integral first derivatives, UseDBF=F ICtDFT=           0.
 Calling FoFJK, ICntrl=      2127 FMM=F ISym2X=1 I1Cent= 0 IOpClX= 0 NMat=1 NMatS=1 NMatT=0.
 FoFJK:  IHMeth= 1 ICntrl=    2127 DoSepK=F KAlg= 0 I1Cent=           0 FoldK=F
 IRaf=         0 NMat=       1 IRICut=       1 DoRegI=T DoRafI=F ISym2E= 1 IDoP0=0 IntGTp=1.
 FoFCou: FMM=F IPFlag=           0 FMFlag=      100000 FMFlg1=         800
         NFxFlg=           0 DoJE=F BraDBF=F KetDBF=F FulRan=T
         wScrn=  0.000000 ICntrl=      2127 IOpCl=  0 I1Cent=           0 NGrid=           0
         NMat0=    1 NMatS0=      1 NMatT0=    0 NMatD0=    1 NMtDS0=    0 NMtDT0=    0
 Petite list used in FoFCou.
 Leave Link  703 at Tue Nov 26 14:34:44 2024, MaxMem=   104857600 cpu:               0.1 elap:               0.1
 (Enter /opt/g16/l716.exe)
 Dipole        = 0.00000000D+00 0.00000000D+00 0.00000000D+00
 ***** Axes restored to original set *****
 -------------------------------------------------------------------
 Center     Atomic                   Forces (Hartrees/Bohr)
 Number     Number              X              Y              Z
 -------------------------------------------------------------------
      1        4          -0.000000000   -0.000000000   -0.000000000
 -------------------------------------------------------------------
 Cartesian Forces:  Max     0.000000000 RMS     0.000000000
 Z-matrix is all fixed cartesians, so copy forces.
 Leave Link  716 at Tue Nov 26 14:34:44 2024, MaxMem=   104857600 cpu:               0.0 elap:               0.0
 (Enter /opt/g16/l103.exe)

 GradGradGradGradGradGradGradGradGradGradGradGradGradGradGradGradGradGrad
 Berny optimization.
 Search for a local minimum.
 Step number   1 out of a maximum of   20
 All quantities printed in internal units (Hartrees-Bohrs-Radians)
 RMS Force = .00000D+00 SwitMx=.10000D-02 MixMth= 2
 Mixed Optimization -- En-DIIS/RFO-DIIS
 Second derivative matrix not updated -- first step.
 The second derivative matrix:
                          X1        Y1        Z1
           X1           0.00000
           Y1           0.00000   0.00000
           Z1           0.00000   0.00000   0.00000
 ITU=  0
     Eigenvalues --- 
 RFO step:  Lambda=-5.96046448D-09 EMin= 0.00000000D+00
 ClnCor:  largest displacement from symmetrization is 0.00D+00 for atom     0.
 Linear search not attempted -- first point.
 ClnCor:  largest displacement from symmetrization is 0.00D+00 for atom     0.
 B after Tr=     0.000000    0.000000    0.000000
         Rot=    1.000000    0.000000    0.000000    0.000000 Ang=   0.00 deg.
 Variable       Old X    -DE/DX   Delta X   Delta X   Delta X     New X
                                 (Linear)    (Quad)   (Total)
    X1        0.00000  -0.00000   0.00000   0.00000   0.00000   0.00000
    Y1        0.00000  -0.00000   0.00000   0.00000   0.00000   0.00000
    Z1        0.00000  -0.00000   0.00000   0.00000   0.00000   0.00000
         Item               Value     Threshold  Converged?
 Maximum Force            0.000000     0.000450     YES
 RMS     Force            0.000000     0.000300     YES
 Maximum Displacement     0.000000     0.001800     YES
 RMS     Displacement     0.000000     0.001200     YES
 Predicted change in Energy=-0.000000D+00
 Optimization completed.
    -- Stationary point found.
 Lowest energy point so far.  Saving SCF results.
 Largest change from initial coordinates is atom    0       0.000 Angstoms.
 GradGradGradGradGradGradGradGradGradGradGradGradGradGradGradGradGradGrad

 Leave Link  103 at Tue Nov 26 14:34:44 2024, MaxMem=   104857600 cpu:               0.0 elap:               0.0
 (Enter /opt/g16/l202.exe)
                          Input orientation:                          
 ---------------------------------------------------------------------
 Center     Atomic      Atomic             Coordinates (Angstroms)
 Number     Number       Type             X           Y           Z
 ---------------------------------------------------------------------
      1          4           0        0.000000    0.000000    0.000000
 ---------------------------------------------------------------------
 Stoichiometry    Be
 Framework group  OH[O(Be)]
 Deg. of freedom     0
 Full point group                 OH      NOp  48
 RotChk:  IX=0 Diff= 0.00D+00
 Largest Abelian subgroup         D2H     NOp   8
 Largest concise Abelian subgroup C1      NOp   1
                         Standard orientation:                         
 ---------------------------------------------------------------------
 Center     Atomic      Atomic             Coordinates (Angstroms)
 Number     Number       Type             X           Y           Z
 ---------------------------------------------------------------------
      1          4           0        0.000000    0.000000    0.000000
 ---------------------------------------------------------------------
 Leave Link  202 at Tue Nov 26 14:34:44 2024, MaxMem=   104857600 cpu:               0.0 elap:               0.0
 (Enter /opt/g16/l9999.exe)
 1\1\GINC-HELIOS\FOpt\RB3LYP\6-31G\Be1\POHL\26-Nov-2024\0\\#p B3LYP/6-3
 1G Opt\\Un calculito\\0,1\Be,0.,0.,0.\\Version=EM64L-G16RevB.01\State=
 1-A1G\HF=-14.6680629\RMSD=3.242e-10\RMSF=0.000e+00\Dipole=0.,0.,0.\Qua
 drupole=0.,0.,0.,0.,0.,0.\PG=OH [O(Be1)]\\@


 I CLAIM NOT TO HAVE CONTROLLED EVENTS,
 BUT CONFESS PLAINLY THAT EVENTS HAVE CONTROLLED ME.

                                         A. LINCOLN
 Job cpu time:       0 days  0 hours  0 minutes  0.9 seconds.
 Elapsed time:       0 days  0 hours  0 minutes  0.9 seconds.
 File lengths (MBytes):  RWF=      6 Int=      0 D2E=      0 Chk=      1 Scr=      1
 Normal termination of Gaussian 16 at Tue Nov 26 14:34:44 2024.
